 Entering Gaussian System, Link 0=g16
 Initial command:
 /apps/brussel/CO7/ivybridge-ib/software/Gaussian/G16.A.03-intel-2017b/g16/l1.exe "/scratch/brussel/102/vsc10255/3546946[3612].master01.hydra.brussel.vsc/Gau-40044.inp" -scrdir="/scratch/brussel/102/vsc10255/3546946[3612].master01.hydra.brussel.vsc/"
 Entering Link 1 = /apps/brussel/CO7/ivybridge-ib/software/Gaussian/G16.A.03-intel-2017b/g16/l1.exe.bin PID=     40045.
  
 Copyright (c) 1988,1990,1992,1993,1995,1998,2003,2009,2016,
            Gaussian, Inc.  All Rights Reserved.
  
 This is part of the Gaussian(R) 16 program.  It is based on
 the Gaussian(R) 09 system (copyright 2009, Gaussian, Inc.),
 the Gaussian(R) 03 system (copyright 2003, Gaussian, Inc.),
 the Gaussian(R) 98 system (copyright 1998, Gaussian, Inc.),
 the Gaussian(R) 94 system (copyright 1995, Gaussian, Inc.),
 the Gaussian 92(TM) system (copyright 1992, Gaussian, Inc.),
 the Gaussian 90(TM) system (copyright 1990, Gaussian, Inc.),
 the Gaussian 88(TM) system (copyright 1988, Gaussian, Inc.),
 the Gaussian 86(TM) system (copyright 1986, Carnegie Mellon
 University), and the Gaussian 82(TM) system (copyright 1983,
 Carnegie Mellon University). Gaussian is a federally registered
 trademark of Gaussian, Inc.
  
 This software contains proprietary and confidential information,
 including trade secrets, belonging to Gaussian, Inc.
  
 This software is provided under written license and may be
 used, copied, transmitted, or stored only in accord with that
 written license.
  
 The following legend is applicable only to US Government
 contracts under FAR:
  
                    RESTRICTED RIGHTS LEGEND
  
 Use, reproduction and disclosure by the US Government is
 subject to restrictions as set forth in subparagraphs (a)
 and (c) of the Commercial Computer Software - Restricted
 Rights clause in FAR 52.227-19.
  
 Gaussian, Inc.
 340 Quinnipiac St., Bldg. 40, Wallingford CT 06492
  
  
 ---------------------------------------------------------------
 Warning -- This program may not be used in any manner that
 competes with the business of Gaussian, Inc. or will provide
 assistance to any competitor of Gaussian, Inc.  The licensee
 of this program is prohibited from giving any competitor of
 Gaussian, Inc. access to this program.  By using this program,
 the user acknowledges that Gaussian, Inc. is engaged in the
 business of creating and licensing software in the field of
 computational chemistry and represents and warrants to the
 licensee that it is not a competitor of Gaussian, Inc. and that
 it will not use this program in any manner prohibited above.
 ---------------------------------------------------------------
  

 Cite this work as:
 Gaussian 16, Revision A.03,
 M. J. Frisch, G. W. Trucks, H. B. Schlegel, G. E. Scuseria, 
 M. A. Robb, J. R. Cheeseman, G. Scalmani, V. Barone, 
 G. A. Petersson, H. Nakatsuji, X. Li, M. Caricato, A. V. Marenich, 
 J. Bloino, B. G. Janesko, R. Gomperts, B. Mennucci, H. P. Hratchian, 
 J. V. Ortiz, A. F. Izmaylov, J. L. Sonnenberg, D. Williams-Young, 
 F. Ding, F. Lipparini, F. Egidi, J. Goings, B. Peng, A. Petrone, 
 T. Henderson, D. Ranasinghe, V. G. Zakrzewski, J. Gao, N. Rega, 
 G. Zheng, W. Liang, M. Hada, M. Ehara, K. Toyota, R. Fukuda, 
 J. Hasegawa, M. Ishida, T. Nakajima, Y. Honda, O. Kitao, H. Nakai, 
 T. Vreven, K. Throssell, J. A. Montgomery, Jr., J. E. Peralta, 
 F. Ogliaro, M. J. Bearpark, J. J. Heyd, E. N. Brothers, K. N. Kudin, 
 V. N. Staroverov, T. A. Keith, R. Kobayashi, J. Normand, 
 K. Raghavachari, A. P. Rendell, J. C. Burant, S. S. Iyengar, 
 J. Tomasi, M. Cossi, J. M. Millam, M. Klene, C. Adamo, R. Cammi, 
 J. W. Ochterski, R. L. Martin, K. Morokuma, O. Farkas, 
 J. B. Foresman, and D. J. Fox, Gaussian, Inc., Wallingford CT, 2016.
 
 ******************************************
 Gaussian 16:  ES64L-G16RevA.03 25-Dec-2016
                 9-Dec-2020 
 ******************************************
 %chk=JID_3612.chk
 %mem=8GB
 %nprocshared=4
 Will use up to    4 processors via shared memory.
 -----------------------------------------------------------
 # opt freq B3LYP/6-31G(d) empiricaldispersion=gd3bj scf=xqc
 -----------------------------------------------------------
 1/18=20,19=15,26=3,38=1/1,3;
 2/9=110,12=2,17=6,18=5,40=1/2;
 3/5=1,6=6,7=1,11=2,25=1,30=1,71=1,74=-5,124=41/1,2,3;
 4//1;
 5/5=2,8=3,13=1,38=5/2,8;
 6/7=2,8=2,9=2,10=2,28=1/1;
 7//1,2,3,16;
 1/18=20,19=15,26=3/3(2);
 2/9=110/2;
 99//99;
 2/9=110/2;
 3/5=1,6=6,7=1,11=2,25=1,30=1,71=1,74=-5,124=41/1,2,3;
 4/5=5,16=3,69=1/1;
 5/5=2,8=3,13=1,38=5/2,8;
 7//1,2,3,16;
 1/18=20,19=15,26=3/3(-5);
 2/9=110/2;
 6/7=2,8=2,9=2,10=2,19=2,28=1/1;
 99/9=1/99;
 ------------------------------
 CID_23088725_JID_3612_neutraal
 ------------------------------
 Symbolic Z-matrix:
 Charge =  0 Multiplicity = 1
 C                     0.93489  -0.0542    0.05313 
 C                     0.46535  -1.42743  -0.31997 
 O                     0.05553  -2.25605   0.48178 
 O                     0.5748   -1.59739  -1.6731 
 O                     0.17876  -2.97498  -1.95192 
 C                     0.60388  -3.26049  -3.22076 
 C                     1.92594  -3.18096  -3.64928 
 N                     2.31791  -3.49936  -4.91411 
 C                     1.35914  -3.92724  -5.76485 
 C                     0.0249   -4.05866  -5.41564 
 C                    -0.35511  -3.7248   -4.11875 
 C                     2.98618  -2.76632  -2.77264 
 N                     3.81352  -2.40452  -2.03999 
 H                     0.71363   0.13009   1.10831 
 H                     0.40737   0.69533  -0.54257 
 H                     2.01384   0.0212   -0.10195 
 H                     1.70294  -4.17502  -6.76611 
 H                    -0.70321  -4.41605  -6.13648 
 H                    -1.39278  -3.82297  -3.8102 
 

 GradGradGradGradGradGradGradGradGradGradGradGradGradGradGradGradGradGrad
 Berny optimization.
 Initialization pass.
                           ----------------------------
                           !    Initial Parameters    !
                           ! (Angstroms and Degrees)  !
 --------------------------                            --------------------------
 ! Name  Definition              Value          Derivative Info.                !
 --------------------------------------------------------------------------------
 ! R1    R(1,2)                  1.4985         estimate D2E/DX2                !
 ! R2    R(1,14)                 1.0938         estimate D2E/DX2                !
 ! R3    R(1,15)                 1.0931         estimate D2E/DX2                !
 ! R4    R(1,16)                 1.0926         estimate D2E/DX2                !
 ! R5    R(2,3)                  1.2237         estimate D2E/DX2                !
 ! R6    R(2,4)                  1.3681         estimate D2E/DX2                !
 ! R7    R(4,5)                  1.4603         estimate D2E/DX2                !
 ! R8    R(5,6)                  1.3683         estimate D2E/DX2                !
 ! R9    R(6,7)                  1.392          estimate D2E/DX2                !
 ! R10   R(6,11)                 1.3934         estimate D2E/DX2                !
 ! R11   R(7,8)                  1.3619         estimate D2E/DX2                !
 ! R12   R(7,12)                 1.4368         estimate D2E/DX2                !
 ! R13   R(8,9)                  1.3513         estimate D2E/DX2                !
 ! R14   R(9,10)                 1.3854         estimate D2E/DX2                !
 ! R15   R(9,17)                 1.0873         estimate D2E/DX2                !
 ! R16   R(10,11)                1.392          estimate D2E/DX2                !
 ! R17   R(10,18)                1.0851         estimate D2E/DX2                !
 ! R18   R(11,19)                1.087          estimate D2E/DX2                !
 ! R19   R(12,13)                1.1628         estimate D2E/DX2                !
 ! A1    A(2,1,14)             109.3431         estimate D2E/DX2                !
 ! A2    A(2,1,15)             109.9662         estimate D2E/DX2                !
 ! A3    A(2,1,16)             109.7136         estimate D2E/DX2                !
 ! A4    A(14,1,15)            108.2144         estimate D2E/DX2                !
 ! A5    A(14,1,16)            108.9688         estimate D2E/DX2                !
 ! A6    A(15,1,16)            110.6017         estimate D2E/DX2                !
 ! A7    A(1,2,3)              124.2197         estimate D2E/DX2                !
 ! A8    A(1,2,4)              109.5743         estimate D2E/DX2                !
 ! A9    A(3,2,4)              126.2054         estimate D2E/DX2                !
 ! A10   A(2,4,5)              106.5195         estimate D2E/DX2                !
 ! A11   A(4,5,6)              106.8369         estimate D2E/DX2                !
 ! A12   A(5,6,7)              124.6537         estimate D2E/DX2                !
 ! A13   A(5,6,11)             116.9564         estimate D2E/DX2                !
 ! A14   A(7,6,11)             118.3123         estimate D2E/DX2                !
 ! A15   A(6,7,8)              123.0842         estimate D2E/DX2                !
 ! A16   A(6,7,12)             121.9694         estimate D2E/DX2                !
 ! A17   A(8,7,12)             114.9429         estimate D2E/DX2                !
 ! A18   A(7,8,9)              117.0332         estimate D2E/DX2                !
 ! A19   A(8,9,10)             123.6858         estimate D2E/DX2                !
 ! A20   A(8,9,17)             115.3138         estimate D2E/DX2                !
 ! A21   A(10,9,17)            120.9996         estimate D2E/DX2                !
 ! A22   A(9,10,11)            118.358          estimate D2E/DX2                !
 ! A23   A(9,10,18)            120.6641         estimate D2E/DX2                !
 ! A24   A(11,10,18)           120.9777         estimate D2E/DX2                !
 ! A25   A(6,11,10)            119.5008         estimate D2E/DX2                !
 ! A26   A(6,11,19)            120.2749         estimate D2E/DX2                !
 ! A27   A(10,11,19)           120.224          estimate D2E/DX2                !
 ! A28   L(7,12,13,1,-1)       177.7052         estimate D2E/DX2                !
 ! A29   L(7,12,13,1,-2)       180.0193         estimate D2E/DX2                !
 ! D1    D(14,1,2,3)            -8.3143         estimate D2E/DX2                !
 ! D2    D(14,1,2,4)           171.9572         estimate D2E/DX2                !
 ! D3    D(15,1,2,3)          -126.9991         estimate D2E/DX2                !
 ! D4    D(15,1,2,4)            53.2724         estimate D2E/DX2                !
 ! D5    D(16,1,2,3)           111.1402         estimate D2E/DX2                !
 ! D6    D(16,1,2,4)           -68.5883         estimate D2E/DX2                !
 ! D7    D(1,2,4,5)            176.6812         estimate D2E/DX2                !
 ! D8    D(3,2,4,5)             -3.0406         estimate D2E/DX2                !
 ! D9    D(2,4,5,6)           -164.8091         estimate D2E/DX2                !
 ! D10   D(4,5,6,7)             57.9855         estimate D2E/DX2                !
 ! D11   D(4,5,6,11)          -125.2804         estimate D2E/DX2                !
 ! D12   D(5,6,7,8)            178.6081         estimate D2E/DX2                !
 ! D13   D(5,6,7,12)            -0.6832         estimate D2E/DX2                !
 ! D14   D(11,6,7,8)             1.9149         estimate D2E/DX2                !
 ! D15   D(11,6,7,12)         -177.3765         estimate D2E/DX2                !
 ! D16   D(5,6,11,10)         -178.6346         estimate D2E/DX2                !
 ! D17   D(5,6,11,19)            1.5434         estimate D2E/DX2                !
 ! D18   D(7,6,11,10)           -1.686          estimate D2E/DX2                !
 ! D19   D(7,6,11,19)          178.4919         estimate D2E/DX2                !
 ! D20   D(6,7,8,9)             -0.9508         estimate D2E/DX2                !
 ! D21   D(12,7,8,9)           178.3861         estimate D2E/DX2                !
 ! D22   D(7,8,9,10)            -0.2333         estimate D2E/DX2                !
 ! D23   D(7,8,9,17)          -179.9127         estimate D2E/DX2                !
 ! D24   D(8,9,10,11)            0.3913         estimate D2E/DX2                !
 ! D25   D(8,9,10,18)         -179.4313         estimate D2E/DX2                !
 ! D26   D(17,9,10,11)        -179.9468         estimate D2E/DX2                !
 ! D27   D(17,9,10,18)           0.2306         estimate D2E/DX2                !
 ! D28   D(9,10,11,6)            0.6041         estimate D2E/DX2                !
 ! D29   D(9,10,11,19)        -179.5738         estimate D2E/DX2                !
 ! D30   D(18,10,11,6)        -179.5739         estimate D2E/DX2                !
 ! D31   D(18,10,11,19)          0.2482         estimate D2E/DX2                !
 --------------------------------------------------------------------------------
 Trust Radius=3.00D-01 FncErr=1.00D-07 GrdErr=1.00D-06 EigMax=2.50D+02 EigMin=1.00D-04
 Number of steps in this run=     89 maximum allowed number of steps=    114.
 GradGradGradGradGradGradGradGradGradGradGradGradGradGradGradGradGradGrad

                          Input orientation:                          
 ---------------------------------------------------------------------
 Center     Atomic      Atomic             Coordinates (Angstroms)
 Number     Number       Type             X           Y           Z
 ---------------------------------------------------------------------
      1          6           0        0.934890   -0.054200    0.053130
      2          6           0        0.465350   -1.427430   -0.319970
      3          8           0        0.055530   -2.256050    0.481780
      4          8           0        0.574800   -1.597390   -1.673100
      5          8           0        0.178760   -2.974980   -1.951920
      6          6           0        0.603880   -3.260490   -3.220760
      7          6           0        1.925940   -3.180960   -3.649280
      8          7           0        2.317910   -3.499360   -4.914110
      9          6           0        1.359140   -3.927240   -5.764850
     10          6           0        0.024900   -4.058660   -5.415640
     11          6           0       -0.355110   -3.724800   -4.118750
     12          6           0        2.986180   -2.766320   -2.772640
     13          7           0        3.813520   -2.404520   -2.039990
     14          1           0        0.713630    0.130090    1.108310
     15          1           0        0.407370    0.695330   -0.542570
     16          1           0        2.013840    0.021200   -0.101950
     17          1           0        1.702940   -4.175020   -6.766110
     18          1           0       -0.703210   -4.416050   -6.136480
     19          1           0       -1.392780   -3.822970   -3.810200
 ---------------------------------------------------------------------
                    Distance matrix (angstroms):
                    1          2          3          4          5
     1  C    0.000000
     2  C    1.498477   0.000000
     3  O    2.409390   1.223669   0.000000
     4  O    2.343282   1.368147   2.312354   0.000000
     5  O    3.622556   2.267224   2.540658   1.460254   0.000000
     6  C    4.594368   3.434222   3.875357   2.272003   1.368283
     7  C    4.946377   4.036396   4.628126   2.870289   2.444606
     8  N    6.201237   5.369450   5.981623   4.142471   3.691274
     9  C    7.002094   6.057609   6.596413   4.773448   4.103478
    10  C    6.838949   5.751801   6.166839   4.512964   3.632546
    11  C    5.704558   4.514620   4.846723   3.372211   2.354230
    12  C    4.421353   3.763350   4.409119   2.896574   2.932359
    13  N    4.265169   3.888884   4.528118   3.357882   3.680307
    14  H    1.093766   2.127791   2.553292   3.277149   4.392329
    15  H    1.093129   2.135187   3.143840   2.561776   3.938236
    16  H    1.092643   2.131639   3.059671   2.675665   3.970768
    17  H    8.004567   7.115729   7.676478   5.818559   5.190342
    18  H    7.747282   6.642979   7.003046   5.431382   4.512770
    19  H    5.877669   4.623090   4.793113   3.659477   2.577214
                    6          7          8          9         10
     6  C    0.000000
     7  C    1.392048   0.000000
     8  N    2.421238   1.361916   0.000000
     9  C    2.736305   2.313835   1.351325   0.000000
    10  C    2.406199   2.739405   2.412933   1.385430   0.000000
    11  C    1.393424   2.391517   2.797938   2.385221   1.392047
    12  C    2.473938   1.436848   2.360048   3.598377   4.174299
    13  N    3.525435   2.599160   3.419955   4.713517   5.337118
    14  H    5.499902   5.921774   7.212223   8.007430   7.783437
    15  H    4.781195   5.194548   6.352633   7.038908   6.818615
    16  H    4.741777   4.779655   5.970233   6.934497   6.988307
    17  H    3.822801   3.279103   2.065093   1.087251   2.157111
    18  H    3.397827   3.824139   3.385510   2.151821   1.085118
    19  H    2.156496   3.384077   3.884915   3.377069   2.154717
                   11         12         13         14         15
    11  C    0.000000
    12  C    3.727588   0.000000
    13  N    4.841679   1.162827   0.000000
    14  H    6.582138   5.349341   5.093659   0.000000
    15  H    5.736548   4.858651   4.842850   1.771637   0.000000
    16  H    5.981565   3.980992   3.588727   1.779644   1.797037
    17  H    3.383309   4.424810   5.470414   9.028798   8.008200
    18  H    2.161073   5.258196   6.420929   8.669591   7.658422
    19  H    1.087014   4.622589   5.679014   6.652472   5.859435
                   16         17         18         19
    16  H    0.000000
    17  H    7.881367   0.000000
    18  H    7.967879   2.498817   0.000000
    19  H    6.335126   4.294744   2.497765   0.000000
 Stoichiometry    C8H6N2O3
 Framework group  C1[X(C8H6N2O3)]
 Deg. of freedom    51
 Full point group                 C1      NOp   1
 Largest Abelian subgroup         C1      NOp   1
 Largest concise Abelian subgroup C1      NOp   1
                         Standard orientation:                         
 ---------------------------------------------------------------------
 Center     Atomic      Atomic             Coordinates (Angstroms)
 Number     Number       Type             X           Y           Z
 ---------------------------------------------------------------------
      1          6           0        3.574140    0.224242    0.996311
      2          6           0        2.632507   -0.448716    0.044530
      3          8           0        2.977343   -0.990036   -0.997309
      4          8           0        1.353498   -0.353378    0.520840
      5          8           0        0.488155   -0.955348   -0.489683
      6          6           0       -0.791077   -0.566927   -0.198322
      7          6           0       -1.216769    0.755709   -0.113366
      8          7           0       -2.505732    1.106244    0.152174
      9          6           0       -3.393896    0.101314    0.317580
     10          6           0       -3.061608   -1.240603    0.226698
     11          6           0       -1.737925   -1.577248   -0.042238
     12          6           0       -0.318534    1.858566   -0.316867
     13          7           0        0.443107    2.724603   -0.465363
     14          1           0        4.604534    0.023658    0.689100
     15          1           0        3.434334   -0.174727    2.004384
     16          1           0        3.403155    1.303338    0.982769
     17          1           0       -4.414424    0.412568    0.526766
     18          1           0       -3.817182   -2.008049    0.359429
     19          1           0       -1.445036   -2.620633   -0.126877
 ---------------------------------------------------------------------
 Rotational constants (GHZ):           1.5877094           0.5342479           0.4331479
 Standard basis: 6-31G(d) (6D, 7F)
 There are   207 symmetry adapted cartesian basis functions of A   symmetry.
 There are   207 symmetry adapted basis functions of A   symmetry.
   207 basis functions,   388 primitive gaussians,   207 cartesian basis functions
    46 alpha electrons       46 beta electrons
       nuclear repulsion energy       735.1397476771 Hartrees.
 NAtoms=   19 NActive=   19 NUniq=   19 SFac= 1.00D+00 NAtFMM=   60 NAOKFM=F Big=F
 Integral buffers will be    131072 words long.
 Raffenetti 2 integral format.
 Two-electron integral symmetry is turned on.
 Nuclear repulsion after empirical dispersion term =      735.1055691074 Hartrees.
 One-electron integrals computed using PRISM.
 NBasis=   207 RedAO= T EigKep=  6.93D-04  NBF=   207
 NBsUse=   207 1.00D-06 EigRej= -1.00D+00 NBFU=   207
 ExpMin= 1.61D-01 ExpMax= 5.48D+03 ExpMxC= 8.25D+02 IAcc=3 IRadAn=         5 AccDes= 0.00D+00
 Harris functional with IExCor=  402 and IRadAn=       5 diagonalized for initial guess.
 HarFok:  IExCor=  402 AccDes= 0.00D+00 IRadAn=         5 IDoV= 1 UseB2=F ITyADJ=14
 ICtDFT=  3500011 ScaDFX=  1.000000  1.000000  1.000000  1.000000
 FoFCou: FMM=F IPFlag=           0 FMFlag=      100000 FMFlg1=           0
         NFxFlg=           0 DoJE=T BraDBF=F KetDBF=T FulRan=T
         wScrn=  0.000000 ICntrl=       500 IOpCl=  0 I1Cent=   200000004 NGrid=           0
         NMat0=    1 NMatS0=      1 NMatT0=    0 NMatD0=    1 NMtDS0=    0 NMtDT0=    0
 Petite list used in FoFCou.
 Keep R1 ints in memory in canonical form, NReq=236238843.
 Requested convergence on RMS density matrix=1.00D-08 within  32 cycles.
 Requested convergence on MAX density matrix=1.00D-06.
 Requested convergence on             energy=1.00D-06.
 No special actions if energy rises.
 Integral accuracy reduced to 1.0D-05 until final iterations.
 Initial convergence to 1.0D-05 achieved.  Increase integral accuracy.
 SCF Done:  E(RB3LYP) =  -643.554569797     A.U. after   15 cycles
            NFock= 15  Conv=0.89D-08     -V/T= 2.0092
 QCSCF skips out because SCF is already converged.

 **********************************************************************

            Population analysis using the SCF density.

 **********************************************************************

 Orbital symmetries:
       Occupied  (A) (A) (A) (A) (A) (A) (A) (A) (A) (A) (A) (A)
                 (A) (A) (A) (A) (A) (A) (A) (A) (A) (A) (A) (A)
                 (A) (A) (A) (A) (A) (A) (A) (A) (A) (A) (A) (A)
                 (A) (A) (A) (A) (A) (A) (A) (A) (A) (A)
       Virtual   (A) (A) (A) (A) (A) (A) (A) (A) (A) (A) (A) (A)
                 (A) (A) (A) (A) (A) (A) (A) (A) (A) (A) (A) (A)
                 (A) (A) (A) (A) (A) (A) (A) (A) (A) (A) (A) (A)
                 (A) (A) (A) (A) (A) (A) (A) (A) (A) (A) (A) (A)
                 (A) (A) (A) (A) (A) (A) (A) (A) (A) (A) (A) (A)
                 (A) (A) (A) (A) (A) (A) (A) (A) (A) (A) (A) (A)
                 (A) (A) (A) (A) (A) (A) (A) (A) (A) (A) (A) (A)
                 (A) (A) (A) (A) (A) (A) (A) (A) (A) (A) (A) (A)
                 (A) (A) (A) (A) (A) (A) (A) (A) (A) (A) (A) (A)
                 (A) (A) (A) (A) (A) (A) (A) (A) (A) (A) (A) (A)
                 (A) (A) (A) (A) (A) (A) (A) (A) (A) (A) (A) (A)
                 (A) (A) (A) (A) (A) (A) (A) (A) (A) (A) (A) (A)
                 (A) (A) (A) (A) (A) (A) (A) (A) (A) (A) (A) (A)
                 (A) (A) (A) (A) (A)
 The electronic state is 1-A.
 Alpha  occ. eigenvalues --  -19.26959 -19.26076 -19.15143 -14.37327 -14.34942
 Alpha  occ. eigenvalues --  -10.33598 -10.29443 -10.28688 -10.25666 -10.24403
 Alpha  occ. eigenvalues --  -10.24051 -10.23685 -10.20970  -1.18943  -1.05620
 Alpha  occ. eigenvalues --   -0.99644  -0.97197  -0.91205  -0.83596  -0.80460
 Alpha  occ. eigenvalues --   -0.76268  -0.69697  -0.66342  -0.61914  -0.58618
 Alpha  occ. eigenvalues --   -0.55456  -0.53942  -0.50397  -0.50194  -0.49194
 Alpha  occ. eigenvalues --   -0.45353  -0.44681  -0.44477  -0.43298  -0.42085
 Alpha  occ. eigenvalues --   -0.41767  -0.40339  -0.37226  -0.36693  -0.36362
 Alpha  occ. eigenvalues --   -0.34552  -0.32563  -0.30655  -0.29727  -0.28436
 Alpha  occ. eigenvalues --   -0.27375
 Alpha virt. eigenvalues --   -0.08310  -0.06667  -0.00968  -0.00610   0.02169
 Alpha virt. eigenvalues --    0.06030   0.07710   0.10481   0.13326   0.14679
 Alpha virt. eigenvalues --    0.14888   0.15053   0.16211   0.17214   0.18425
 Alpha virt. eigenvalues --    0.20072   0.23140   0.25678   0.27179   0.32632
 Alpha virt. eigenvalues --    0.34234   0.34351   0.37943   0.40932   0.47704
 Alpha virt. eigenvalues --    0.48677   0.49639   0.51982   0.52350   0.53350
 Alpha virt. eigenvalues --    0.55155   0.55740   0.56489   0.56597   0.56811
 Alpha virt. eigenvalues --    0.58265   0.59126   0.60609   0.61166   0.62400
 Alpha virt. eigenvalues --    0.63082   0.64721   0.65826   0.66876   0.69816
 Alpha virt. eigenvalues --    0.71882   0.76395   0.78043   0.79548   0.80903
 Alpha virt. eigenvalues --    0.81450   0.82052   0.84720   0.85009   0.85593
 Alpha virt. eigenvalues --    0.86230   0.87932   0.89075   0.89218   0.92946
 Alpha virt. eigenvalues --    0.94405   0.95780   0.97657   0.99075   0.99818
 Alpha virt. eigenvalues --    1.01303   1.05783   1.06830   1.08670   1.10305
 Alpha virt. eigenvalues --    1.14830   1.15599   1.16527   1.22325   1.24607
 Alpha virt. eigenvalues --    1.28395   1.33349   1.36542   1.37758   1.39604
 Alpha virt. eigenvalues --    1.40060   1.41373   1.42471   1.45677   1.46549
 Alpha virt. eigenvalues --    1.48790   1.51446   1.52698   1.53573   1.56484
 Alpha virt. eigenvalues --    1.60539   1.64080   1.69363   1.72378   1.73046
 Alpha virt. eigenvalues --    1.75438   1.76524   1.78846   1.79484   1.81112
 Alpha virt. eigenvalues --    1.82021   1.84460   1.85255   1.87841   1.89627
 Alpha virt. eigenvalues --    1.91688   1.94718   1.95557   1.96323   1.99611
 Alpha virt. eigenvalues --    2.01432   2.03568   2.06863   2.09407   2.10442
 Alpha virt. eigenvalues --    2.12310   2.14994   2.17659   2.19119   2.23160
 Alpha virt. eigenvalues --    2.26490   2.28017   2.30095   2.32213   2.38531
 Alpha virt. eigenvalues --    2.41936   2.44920   2.46125   2.48164   2.58223
 Alpha virt. eigenvalues --    2.61109   2.63823   2.64518   2.66325   2.67495
 Alpha virt. eigenvalues --    2.70101   2.76169   2.78813   2.80949   2.82536
 Alpha virt. eigenvalues --    2.86676   2.89497   2.94710   3.05333   3.16020
 Alpha virt. eigenvalues --    3.17748   3.27385   3.43883   3.92164   3.98556
 Alpha virt. eigenvalues --    4.01888   4.04112   4.08239   4.13177   4.16693
 Alpha virt. eigenvalues --    4.20856   4.24616   4.40249   4.43493   4.63964
 Alpha virt. eigenvalues --    4.75955
          Condensed to atoms (all electrons):
               1          2          3          4          5          6
     1  C    5.257073   0.362337  -0.069389  -0.087959   0.003239   0.000048
     2  C    0.362337   4.340856   0.589071   0.148596  -0.011462   0.004011
     3  O   -0.069389   0.589071   7.972575  -0.060316  -0.001901   0.001441
     4  O   -0.087959   0.148596  -0.060316   8.241860   0.046010  -0.028254
     5  O    0.003239  -0.011462  -0.001901   0.046010   8.209108   0.200982
     6  C    0.000048   0.004011   0.001441  -0.028254   0.200982   4.673345
     7  C   -0.000073   0.000129  -0.000023   0.001260  -0.048212   0.422113
     8  N   -0.000000   0.000003  -0.000000  -0.000053   0.002789  -0.009238
     9  C    0.000000  -0.000000   0.000000   0.000028  -0.000046  -0.045736
    10  C   -0.000000  -0.000001  -0.000000  -0.000079   0.004991  -0.009412
    11  C    0.000008  -0.000021  -0.000021   0.000297  -0.062393   0.505143
    12  C   -0.000061   0.000976  -0.000064  -0.000889  -0.006177  -0.076885
    13  N   -0.000351   0.001043  -0.000008  -0.003146  -0.000407  -0.002415
    14  H    0.365503  -0.023888   0.002022   0.003004  -0.000062   0.000002
    15  H    0.351301  -0.022680   0.001744   0.003094  -0.000024  -0.000022
    16  H    0.358114  -0.021227   0.000629   0.001254  -0.000041  -0.000010
    17  H   -0.000000   0.000000   0.000000   0.000000   0.000004   0.001039
    18  H    0.000000  -0.000000  -0.000000   0.000001  -0.000040   0.004507
    19  H    0.000000  -0.000008   0.000002  -0.000095  -0.002001  -0.035980
               7          8          9         10         11         12
     1  C   -0.000073  -0.000000   0.000000  -0.000000   0.000008  -0.000061
     2  C    0.000129   0.000003  -0.000000  -0.000001  -0.000021   0.000976
     3  O   -0.000023  -0.000000   0.000000  -0.000000  -0.000021  -0.000064
     4  O    0.001260  -0.000053   0.000028  -0.000079   0.000297  -0.000889
     5  O   -0.048212   0.002789  -0.000046   0.004991  -0.062393  -0.006177
     6  C    0.422113  -0.009238  -0.045736  -0.009412   0.505143  -0.076885
     7  C    4.988590   0.423990  -0.054279  -0.032109  -0.071410   0.198812
     8  N    0.423990   6.794817   0.449835  -0.019740  -0.052335  -0.085441
     9  C   -0.054279   0.449835   4.783387   0.486623  -0.025680   0.005772
    10  C   -0.032109  -0.019740   0.486623   4.958317   0.494652   0.000506
    11  C   -0.071410  -0.052335  -0.025680   0.494652   5.016526   0.004951
    12  C    0.198812  -0.085441   0.005772   0.000506   0.004951   4.769286
    13  N   -0.099196  -0.002309  -0.000084   0.000012  -0.000113   0.850868
    14  H    0.000001  -0.000000  -0.000000   0.000000   0.000000   0.000001
    15  H    0.000005  -0.000000  -0.000000   0.000000  -0.000000   0.000001
    16  H    0.000026   0.000000  -0.000000   0.000000   0.000001   0.000405
    17  H    0.004853  -0.049932   0.378704  -0.060343   0.003213  -0.000215
    18  H    0.000281   0.004475  -0.033780   0.352980  -0.036948   0.000017
    19  H    0.006455  -0.000211   0.004724  -0.042059   0.356494  -0.000136
              13         14         15         16         17         18
     1  C   -0.000351   0.365503   0.351301   0.358114  -0.000000   0.000000
     2  C    0.001043  -0.023888  -0.022680  -0.021227   0.000000  -0.000000
     3  O   -0.000008   0.002022   0.001744   0.000629   0.000000  -0.000000
     4  O   -0.003146   0.003004   0.003094   0.001254   0.000000   0.000001
     5  O   -0.000407  -0.000062  -0.000024  -0.000041   0.000004  -0.000040
     6  C   -0.002415   0.000002  -0.000022  -0.000010   0.001039   0.004507
     7  C   -0.099196   0.000001   0.000005   0.000026   0.004853   0.000281
     8  N   -0.002309  -0.000000  -0.000000   0.000000  -0.049932   0.004475
     9  C   -0.000084  -0.000000  -0.000000  -0.000000   0.378704  -0.033780
    10  C    0.000012   0.000000   0.000000   0.000000  -0.060343   0.352980
    11  C   -0.000113   0.000000  -0.000000   0.000001   0.003213  -0.036948
    12  C    0.850868   0.000001   0.000001   0.000405  -0.000215   0.000017
    13  N    6.735391   0.000000   0.000002   0.001003   0.000001  -0.000000
    14  H    0.000000   0.497890  -0.024043  -0.020253   0.000000  -0.000000
    15  H    0.000002  -0.024043   0.526127  -0.020268  -0.000000  -0.000000
    16  H    0.001003  -0.020253  -0.020268   0.489564   0.000000   0.000000
    17  H    0.000001   0.000000  -0.000000   0.000000   0.559069  -0.001698
    18  H   -0.000000  -0.000000  -0.000000   0.000000  -0.001698   0.552478
    19  H   -0.000000   0.000000   0.000000  -0.000000  -0.000156  -0.005720
              19
     1  C    0.000000
     2  C   -0.000008
     3  O    0.000002
     4  O   -0.000095
     5  O   -0.002001
     6  C   -0.035980
     7  C    0.006455
     8  N   -0.000211
     9  C    0.004724
    10  C   -0.042059
    11  C    0.356494
    12  C   -0.000136
    13  N   -0.000000
    14  H    0.000000
    15  H    0.000000
    16  H   -0.000000
    17  H   -0.000156
    18  H   -0.005720
    19  H    0.540003
 Mulliken charges:
               1
     1  C   -0.539789
     2  C    0.632263
     3  O   -0.435762
     4  O   -0.264614
     5  O   -0.334357
     6  C    0.395323
     7  C    0.258788
     8  N   -0.456651
     9  C    0.050533
    10  C   -0.134338
    11  C   -0.132365
    12  C    0.338273
    13  N   -0.480291
    14  H    0.199824
    15  H    0.184762
    16  H    0.210803
    17  H    0.165461
    18  H    0.163449
    19  H    0.178688
 Sum of Mulliken charges =   0.00000
 Mulliken charges with hydrogens summed into heavy atoms:
               1
     1  C    0.055600
     2  C    0.632263
     3  O   -0.435762
     4  O   -0.264614
     5  O   -0.334357
     6  C    0.395323
     7  C    0.258788
     8  N   -0.456651
     9  C    0.215993
    10  C    0.029110
    11  C    0.046323
    12  C    0.338273
    13  N   -0.480291
 Electronic spatial extent (au):  <R**2>=           2505.4988
 Charge=              0.0000 electrons
 Dipole moment (field-independent basis, Debye):
    X=             -2.6434    Y=             -3.4923    Z=              2.8041  Tot=              5.2006
 Quadrupole moment (field-independent basis, Debye-Ang):
   XX=            -59.5526   YY=            -79.7883   ZZ=            -74.1019
   XY=              8.9905   XZ=              7.3434   YZ=             -0.9030
 Traceless Quadrupole moment (field-independent basis, Debye-Ang):
   XX=             11.5950   YY=             -8.6407   ZZ=             -2.9543
   XY=              8.9905   XZ=              7.3434   YZ=             -0.9030
 Octapole moment (field-independent basis, Debye-Ang**2):
  XXX=             -4.9709  YYY=            -51.7059  ZZZ=              0.3984  XYY=             -7.0635
  XXY=             -9.8969  XXZ=             31.3583  XZZ=              5.9229  YZZ=             -0.4718
  YYZ=              6.3134  XYZ=             -3.2495
 Hexadecapole moment (field-independent basis, Debye-Ang**3):
 XXXX=          -2051.3107 YYYY=           -805.5653 ZZZZ=           -184.8222 XXXY=             81.4370
 XXXZ=             42.5688 YYYX=              7.8868 YYYZ=             18.5625 ZZZX=              5.6948
 ZZZY=              2.2803 XXYY=           -518.0859 XXZZ=           -437.5187 YYZZ=           -160.4441
 XXYZ=            -19.5383 YYXZ=              9.0368 ZZXY=             -3.6627
 N-N= 7.351055691074D+02 E-N=-2.971286147041D+03  KE= 6.377004225187D+02
 Calling FoFJK, ICntrl=      2127 FMM=F ISym2X=0 I1Cent= 0 IOpClX= 0 NMat=1 NMatS=1 NMatT=0.
 ***** Axes restored to original set *****
 -------------------------------------------------------------------
 Center     Atomic                   Forces (Hartrees/Bohr)
 Number     Number              X              Y              Z
 -------------------------------------------------------------------
      1        6          -0.001559460    0.006905119    0.000341157
      2        6          -0.010481891   -0.018805718    0.039540841
      3        8           0.010976000    0.018316339   -0.031045185
      4        8          -0.000715510   -0.000234830    0.006259582
      5        8          -0.000767499   -0.008445422   -0.004550226
      6        6          -0.012693319   -0.001857505   -0.002917689
      7        6           0.019786041   -0.003596301   -0.018294699
      8        7          -0.017654760   -0.002256461    0.004332507
      9        6           0.020413552    0.006028444    0.005392106
     10        6          -0.005047971   -0.002121389    0.005819597
     11        6          -0.006985046   -0.001133776   -0.004435963
     12        6          -0.000915958    0.005069819    0.005716323
     13        7          -0.001358235   -0.001814330   -0.001898277
     14        1          -0.000024067   -0.003878501   -0.001760705
     15        1           0.004114229    0.002568499   -0.002609528
     16        1           0.000835853    0.002486097   -0.003032437
     17        1           0.000179521    0.000334654    0.000302130
     18        1          -0.000199847    0.000062756    0.000361507
     19        1           0.002098369    0.002372504    0.002478959
 -------------------------------------------------------------------
 Cartesian Forces:  Max     0.039540841 RMS     0.009948949

 GradGradGradGradGradGradGradGradGradGradGradGradGradGradGradGradGradGrad
 Berny optimization.
 FormGI is forming the generalized inverse of G from B-inverse, IUseBI=4.
 Internal  Forces:  Max     0.036420065 RMS     0.006296309
 Search for a local minimum.
 Step number   1 out of a maximum of   89
 All quantities printed in internal units (Hartrees-Bohrs-Radians)
 Mixed Optimization -- RFO/linear search
 Second derivative matrix not updated -- first step.
 ITU=  0
     Eigenvalues ---    0.00498   0.00786   0.01130   0.02111   0.02113
     Eigenvalues ---    0.02179   0.02184   0.02189   0.02195   0.02216
     Eigenvalues ---    0.02237   0.02280   0.02300   0.04829   0.04829
     Eigenvalues ---    0.07426   0.07587   0.16000   0.16000   0.16000
     Eigenvalues ---    0.16000   0.16000   0.16000   0.22080   0.23305
     Eigenvalues ---    0.24906   0.24959   0.24999   0.25000   0.25000
     Eigenvalues ---    0.25000   0.25000   0.32538   0.34381   0.34454
     Eigenvalues ---    0.34509   0.35132   0.35160   0.35383   0.36933
     Eigenvalues ---    0.40021   0.43273   0.44405   0.46890   0.47704
     Eigenvalues ---    0.51308   0.51334   0.51381   0.53633   0.93776
     Eigenvalues ---    1.25961
 RFO step:  Lambda=-9.10582922D-03 EMin= 4.97756716D-03
 Linear search not attempted -- first point.
 Iteration  1 RMS(Cart)=  0.18194305 RMS(Int)=  0.01293812
 Iteration  2 RMS(Cart)=  0.05719382 RMS(Int)=  0.00147798
 Iteration  3 RMS(Cart)=  0.00193217 RMS(Int)=  0.00013303
 Iteration  4 RMS(Cart)=  0.00000279 RMS(Int)=  0.00013303
 Iteration  5 RMS(Cart)=  0.00000000 RMS(Int)=  0.00013303
 Variable       Old X    -DE/DX   Delta X   Delta X   Delta X     New X
                                 (Linear)    (Quad)   (Total)
    R1        2.83171   0.00670   0.00000   0.02003   0.02003   2.85174
    R2        2.06692  -0.00235   0.00000  -0.00665  -0.00665   2.06027
    R3        2.06571   0.00120   0.00000   0.00339   0.00339   2.06910
    R4        2.06480   0.00143   0.00000   0.00403   0.00403   2.06883
    R5        2.31240  -0.03642   0.00000  -0.03846  -0.03846   2.27394
    R6        2.58542   0.00206   0.00000   0.00393   0.00393   2.58936
    R7        2.75948   0.00926   0.00000   0.02447   0.02447   2.78395
    R8        2.58568   0.00195   0.00000   0.00374   0.00374   2.58942
    R9        2.63059   0.01017   0.00000   0.02124   0.02125   2.65184
   R10        2.63319  -0.00143   0.00000  -0.00163  -0.00164   2.63155
   R11        2.57365  -0.01459   0.00000  -0.02846  -0.02844   2.54521
   R12        2.71525   0.00159   0.00000   0.00389   0.00389   2.71914
   R13        2.55363  -0.01402   0.00000  -0.02636  -0.02634   2.52729
   R14        2.61808   0.01089   0.00000   0.02211   0.02210   2.64019
   R15        2.05461  -0.00030   0.00000  -0.00083  -0.00083   2.05378
   R16        2.63059  -0.00169   0.00000  -0.00220  -0.00222   2.62836
   R17        2.05058  -0.00013   0.00000  -0.00035  -0.00035   2.05023
   R18        2.05416  -0.00151   0.00000  -0.00420  -0.00420   2.04996
   R19        2.19742  -0.00273   0.00000  -0.00215  -0.00215   2.19528
    A1        1.90840  -0.00500   0.00000  -0.02493  -0.02488   1.88352
    A2        1.91927   0.00433   0.00000   0.02552   0.02560   1.94487
    A3        1.91486   0.00127   0.00000   0.00283   0.00285   1.91772
    A4        1.88870   0.00231   0.00000   0.02300   0.02311   1.91181
    A5        1.90187   0.00183   0.00000   0.01081   0.01081   1.91267
    A6        1.93036  -0.00478   0.00000  -0.03722  -0.03716   1.89320
    A7        2.16804   0.01373   0.00000   0.05297   0.05292   2.22096
    A8        1.91243  -0.00513   0.00000  -0.01982  -0.01987   1.89256
    A9        2.20270  -0.00860   0.00000  -0.03322  -0.03326   2.16944
   A10        1.85912   0.01780   0.00000   0.06869   0.06869   1.92780
   A11        1.86466  -0.00324   0.00000  -0.01250  -0.01250   1.85216
   A12        2.17562  -0.00790   0.00000  -0.03250  -0.03248   2.14314
   A13        2.04127   0.00558   0.00000   0.01966   0.01964   2.06092
   A14        2.06494   0.00230   0.00000   0.01206   0.01196   2.07690
   A15        2.14822  -0.00036   0.00000  -0.00295  -0.00308   2.14515
   A16        2.12877  -0.00551   0.00000  -0.02038  -0.02046   2.10830
   A17        2.00613   0.00588   0.00000   0.02360   0.02351   2.02964
   A18        2.04261   0.00279   0.00000   0.00419   0.00416   2.04678
   A19        2.15872   0.00095   0.00000   0.00197   0.00192   2.16064
   A20        2.01261  -0.00082   0.00000  -0.00298  -0.00295   2.00965
   A21        2.11184  -0.00014   0.00000   0.00103   0.00105   2.11289
   A22        2.06574   0.00067   0.00000   0.00644   0.00630   2.07204
   A23        2.10599   0.00007   0.00000  -0.00078  -0.00079   2.10519
   A24        2.11146  -0.00074   0.00000  -0.00561  -0.00563   2.10583
   A25        2.08568  -0.00634   0.00000  -0.02109  -0.02123   2.06445
   A26        2.09919  -0.00048   0.00000  -0.01101  -0.01100   2.08819
   A27        2.09831   0.00682   0.00000   0.03215   0.03214   2.13045
   A28        3.10154   0.00223   0.00000   0.03880   0.03880   3.14034
   A29        3.14193  -0.00112   0.00000  -0.01947  -0.01947   3.12246
    D1       -0.14511   0.00058   0.00000  -0.00175  -0.00192  -0.14704
    D2        3.00122   0.00094   0.00000   0.01517   0.01525   3.01646
    D3       -2.21655  -0.00180   0.00000  -0.03000  -0.03011  -2.24666
    D4        0.92978  -0.00144   0.00000  -0.01309  -0.01294   0.91684
    D5        1.93976   0.00053   0.00000  -0.00202  -0.00212   1.93764
    D6       -1.19709   0.00090   0.00000   0.01490   0.01505  -1.18204
    D7        3.08367  -0.00053   0.00000  -0.02101  -0.02062   3.06305
    D8       -0.05307  -0.00023   0.00000  -0.00397  -0.00437  -0.05743
    D9       -2.87646   0.00397   0.00000   0.28212   0.28212  -2.59434
   D10        1.01204  -0.00208   0.00000  -0.06768  -0.06778   0.94426
   D11       -2.18656  -0.00248   0.00000  -0.08337  -0.08327  -2.26983
   D12        3.11730  -0.00072   0.00000  -0.03050  -0.03040   3.08690
   D13       -0.01192  -0.00168   0.00000  -0.05806  -0.05778  -0.06971
   D14        0.03342  -0.00041   0.00000  -0.01481  -0.01498   0.01844
   D15       -3.09580  -0.00136   0.00000  -0.04237  -0.04237  -3.13817
   D16       -3.11776   0.00186   0.00000   0.05214   0.05224  -3.06552
   D17        0.02694   0.00124   0.00000   0.03388   0.03429   0.06122
   D18       -0.02943   0.00112   0.00000   0.03594   0.03583   0.00640
   D19        3.11527   0.00050   0.00000   0.01768   0.01787   3.13314
   D20       -0.01660  -0.00014   0.00000  -0.00663  -0.00680  -0.02340
   D21        3.11343   0.00068   0.00000   0.01887   0.01916   3.13258
   D22       -0.00407   0.00023   0.00000   0.00786   0.00798   0.00391
   D23       -3.14007   0.00011   0.00000   0.00371   0.00394  -3.13612
   D24        0.00683   0.00038   0.00000   0.01302   0.01324   0.02007
   D25       -3.13167  -0.00020   0.00000  -0.00728  -0.00705  -3.13871
   D26       -3.14066   0.00052   0.00000   0.01739   0.01750  -3.12317
   D27        0.00402  -0.00007   0.00000  -0.00291  -0.00279   0.00124
   D28        0.01054  -0.00103   0.00000  -0.03501  -0.03485  -0.02431
   D29       -3.13415  -0.00043   0.00000  -0.01684  -0.01652   3.13252
   D30       -3.13416  -0.00045   0.00000  -0.01464  -0.01455   3.13448
   D31        0.00433   0.00016   0.00000   0.00353   0.00379   0.00812
         Item               Value     Threshold  Converged?
 Maximum Force            0.036420     0.000450     NO 
 RMS     Force            0.006296     0.000300     NO 
 Maximum Displacement     0.771368     0.001800     NO 
 RMS     Displacement     0.227764     0.001200     NO 
 Predicted change in Energy=-5.151373D-03
 GradGradGradGradGradGradGradGradGradGradGradGradGradGradGradGradGradGrad

                          Input orientation:                          
 ---------------------------------------------------------------------
 Center     Atomic      Atomic             Coordinates (Angstroms)
 Number     Number       Type             X           Y           Z
 ---------------------------------------------------------------------
      1          6           0        1.094281   -0.107121   -0.032567
      2          6           0        0.552446   -1.487748   -0.311120
      3          8           0        0.336440   -2.360493    0.488645
      4          8           0        0.361634   -1.613930   -1.662119
      5          8           0       -0.065949   -2.983616   -1.995971
      6          6           0        0.433140   -3.244145   -3.245230
      7          6           0        1.792038   -3.102571   -3.565509
      8          7           0        2.295360   -3.416306   -4.774761
      9          6           0        1.445766   -3.906973   -5.683625
     10          6           0        0.082846   -4.103200   -5.447184
     11          6           0       -0.437799   -3.750612   -4.206567
     12          6           0        2.726619   -2.587328   -2.600351
     13          7           0        3.475697   -2.186232   -1.808184
     14          1           0        1.121820    0.030552    1.048601
     15          1           0        0.466472    0.667772   -0.484507
     16          1           0        2.106180   -0.015153   -0.440162
     17          1           0        1.889253   -4.153139   -6.644815
     18          1           0       -0.559788   -4.507730   -6.222076
     19          1           0       -1.488976   -3.871847   -3.967599
 ---------------------------------------------------------------------
                    Distance matrix (angstroms):
                    1          2          3          4          5
     1  C    0.000000
     2  C    1.509075   0.000000
     3  O    2.433859   1.203315   0.000000
     4  O    2.337238   1.370229   2.276791   0.000000
     5  O    3.670873   2.336397   2.592975   1.473202   0.000000
     6  C    4.538637   3.421719   3.838231   2.273534   1.370260
     7  C    4.684150   3.838657   4.370997   2.808025   2.435101
     8  N    5.906073   5.165382   5.714504   4.083675   3.672149
     9  C    6.818861   5.959402   6.459034   4.754567   4.091047
    10  C    6.805125   5.782755   6.191559   4.538823   3.631319
    11  C    5.748440   4.612552   4.957509   3.417415   2.369238
    12  C    3.925490   3.343155   3.912328   2.724141   2.884573
    13  N    3.625833   3.357749   3.893678   3.169583   3.635154
    14  H    1.090246   2.116191   2.578268   3.260399   4.445832
    15  H    1.094921   2.164191   3.183445   2.569810   3.987559
    16  H    1.094775   2.144593   3.081442   2.663214   3.993803
    17  H    7.792564   7.000503   7.517384   5.797281   5.177098
    18  H    7.772472   6.730286   7.102650   5.478715   4.519598
    19  H    6.027508   4.818834   5.047222   3.719971   2.588682
                    6          7          8          9         10
     6  C    0.000000
     7  C    1.403292   0.000000
     8  N    2.415982   1.346867   0.000000
     9  C    2.722227   2.292026   1.337385   0.000000
    10  C    2.389410   2.731904   2.412301   1.397126   0.000000
    11  C    1.392555   2.408959   2.811541   2.398742   1.390870
    12  C    2.471301   1.438905   2.366695   3.590074   4.170356
    13  N    3.527242   2.600495   3.421528   4.701129   5.331841
    14  H    5.443795   5.617443   6.868010   7.805889   7.769337
    15  H    4.788089   5.046304   6.199258   6.994150   6.894745
    16  H    4.592805   4.404387   5.512928   6.563255   6.773203
    17  H    3.808374   3.255037   2.050597   1.086814   2.167930
    18  H    3.382923   3.816138   3.381982   2.161732   1.084934
    19  H    2.147174   3.393894   3.896181   3.399807   2.171017
                   11         12         13         14         15
    11  C    0.000000
    12  C    3.734528   0.000000
    13  N    4.849224   1.161690   0.000000
    14  H    6.659309   4.769017   4.314637   0.000000
    15  H    5.847526   4.492298   4.353493   1.784923   0.000000
    16  H    5.883136   3.415764   2.908719   1.785349   1.776794
    17  H    3.394444   4.417084   5.456970   8.790954   7.950779
    18  H    2.156475   5.254076   6.415367   8.734217   7.794789
    19  H    1.084793   4.614174   5.670304   6.870752   6.046805
                   16         17         18         19
    16  H    0.000000
    17  H    7.461079   0.000000
    18  H    7.792379   2.510428   0.000000
    19  H    6.343662   4.319611   2.520000   0.000000
 Stoichiometry    C8H6N2O3
 Framework group  C1[X(C8H6N2O3)]
 Deg. of freedom    51
 Full point group                 C1      NOp   1
 Largest Abelian subgroup         C1      NOp   1
 Largest concise Abelian subgroup C1      NOp   1
                         Standard orientation:                         
 ---------------------------------------------------------------------
 Center     Atomic      Atomic             Coordinates (Angstroms)
 Number     Number       Type             X           Y           Z
 ---------------------------------------------------------------------
      1          6           0        3.435389    0.278683    0.985566
      2          6           0        2.548071   -0.469937    0.021438
      3          8           0        2.849343   -0.901922   -1.060501
      4          8           0        1.295645   -0.564412    0.569189
      5          8           0        0.363798   -1.194345   -0.382214
      6          6           0       -0.865796   -0.644081   -0.131371
      7          6           0       -1.091671    0.740898   -0.124996
      8          7           0       -2.310747    1.282641    0.060532
      9          6           0       -3.338081    0.440798    0.217002
     10          6           0       -3.211833   -0.950537    0.202507
     11          6           0       -1.946772   -1.505162    0.039624
     12          6           0       -0.003627    1.665619   -0.302473
     13          7           0        0.879341    2.403146   -0.463551
     14          1           0        4.455604    0.237900    0.603289
     15          1           0        3.401457   -0.163722    1.986556
     16          1           0        3.111368    1.322016    1.056272
     17          1           0       -4.305860    0.914560    0.358840
     18          1           0       -4.081811   -1.585706    0.332045
     19          1           0       -1.785285   -2.577811    0.028565
 ---------------------------------------------------------------------
 Rotational constants (GHZ):           1.7213158           0.5499456           0.4528498
 Standard basis: 6-31G(d) (6D, 7F)
 There are   207 symmetry adapted cartesian basis functions of A   symmetry.
 There are   207 symmetry adapted basis functions of A   symmetry.
   207 basis functions,   388 primitive gaussians,   207 cartesian basis functions
    46 alpha electrons       46 beta electrons
       nuclear repulsion energy       743.3940842286 Hartrees.
 NAtoms=   19 NActive=   19 NUniq=   19 SFac= 1.00D+00 NAtFMM=   60 NAOKFM=F Big=F
 Integral buffers will be    131072 words long.
 Raffenetti 2 integral format.
 Two-electron integral symmetry is turned on.
 Nuclear repulsion after empirical dispersion term =      743.3587032901 Hartrees.
 One-electron integrals computed using PRISM.
 NBasis=   207 RedAO= T EigKep=  6.90D-04  NBF=   207
 NBsUse=   207 1.00D-06 EigRej= -1.00D+00 NBFU=   207
 Initial guess from the checkpoint file:  "JID_3612.chk"
 B after Tr=     0.000000    0.000000   -0.000000
         Rot=    0.999333    0.016164    0.004119    0.032485 Ang=   4.19 deg.
 ExpMin= 1.61D-01 ExpMax= 5.48D+03 ExpMxC= 8.25D+02 IAcc=2 IRadAn=         4 AccDes= 0.00D+00
 Harris functional with IExCor=  402 and IRadAn=       4 diagonalized for initial guess.
 HarFok:  IExCor=  402 AccDes= 0.00D+00 IRadAn=         4 IDoV= 1 UseB2=F ITyADJ=14
 ICtDFT=  3500011 ScaDFX=  1.000000  1.000000  1.000000  1.000000
 FoFCou: FMM=F IPFlag=           0 FMFlag=      100000 FMFlg1=           0
         NFxFlg=           0 DoJE=T BraDBF=F KetDBF=T FulRan=T
         wScrn=  0.000000 ICntrl=       500 IOpCl=  0 I1Cent=   200000004 NGrid=           0
         NMat0=    1 NMatS0=      1 NMatT0=    0 NMatD0=    1 NMtDS0=    0 NMtDT0=    0
 Petite list used in FoFCou.
 Keep R1 ints in memory in canonical form, NReq=236238843.
 Requested convergence on RMS density matrix=1.00D-08 within  32 cycles.
 Requested convergence on MAX density matrix=1.00D-06.
 Requested convergence on             energy=1.00D-06.
 No special actions if energy rises.
 Integral accuracy reduced to 1.0D-05 until final iterations.
 Initial convergence to 1.0D-05 achieved.  Increase integral accuracy.
 SCF Done:  E(RB3LYP) =  -643.559928463     A.U. after   16 cycles
            NFock= 16  Conv=0.63D-08     -V/T= 2.0091
 QCSCF skips out because SCF is already converged.
 Calling FoFJK, ICntrl=      2127 FMM=F ISym2X=0 I1Cent= 0 IOpClX= 0 NMat=1 NMatS=1 NMatT=0.
 ***** Axes restored to original set *****
 -------------------------------------------------------------------
 Center     Atomic                   Forces (Hartrees/Bohr)
 Number     Number              X              Y              Z
 -------------------------------------------------------------------
      1        6          -0.001263139    0.002794295   -0.001186451
      2        6           0.001379886   -0.010092803    0.012695535
      3        8           0.000822111    0.005344100   -0.004961165
      4        8          -0.002810846    0.003864702   -0.006272114
      5        8          -0.002090503    0.000710193   -0.000431342
      6        6          -0.001117266   -0.000405886    0.002987571
      7        6           0.006638459    0.001004467   -0.005792603
      8        7          -0.006152643   -0.000139044    0.002707218
      9        6           0.004340601    0.000731154    0.000289849
     10        6          -0.000029925    0.000222864    0.000811860
     11        6          -0.000740331   -0.001348237   -0.000263651
     12        6           0.000863490   -0.001089326    0.000807395
     13        7           0.000425380    0.000497490   -0.000232389
     14        1           0.000031500   -0.000561910    0.000268343
     15        1           0.000567218   -0.000661666   -0.000697517
     16        1          -0.000264956   -0.001151548   -0.000510658
     17        1          -0.001048982   -0.000606755   -0.000472546
     18        1           0.000249560    0.000063346   -0.000293254
     19        1           0.000200386    0.000824565    0.000545920
 -------------------------------------------------------------------
 Cartesian Forces:  Max     0.012695535 RMS     0.003142357

 GradGradGradGradGradGradGradGradGradGradGradGradGradGradGradGradGradGrad
 Berny optimization.
 Using GEDIIS/GDIIS optimizer.
 FormGI is forming the generalized inverse of G from B-inverse, IUseBI=4.
 Internal  Forces:  Max     0.007320944 RMS     0.001908128
 Search for a local minimum.
 Step number   2 out of a maximum of   89
 All quantities printed in internal units (Hartrees-Bohrs-Radians)
 Mixed Optimization -- RFO/linear search
 Update second derivatives using D2CorX and points    1    2
 DE= -5.36D-03 DEPred=-5.15D-03 R= 1.04D+00
 TightC=F SS=  1.41D+00  RLast= 3.62D-01 DXNew= 5.0454D-01 1.0873D+00
 Trust test= 1.04D+00 RLast= 3.62D-01 DXMaxT set to 5.05D-01
 ITU=  1  0
 Use linear search instead of GDIIS.
     Eigenvalues ---    0.00479   0.00786   0.01106   0.02101   0.02137
     Eigenvalues ---    0.02167   0.02186   0.02188   0.02213   0.02238
     Eigenvalues ---    0.02279   0.02292   0.02316   0.04807   0.04879
     Eigenvalues ---    0.07257   0.07636   0.15504   0.15998   0.15999
     Eigenvalues ---    0.16000   0.16000   0.16242   0.21843   0.23018
     Eigenvalues ---    0.23446   0.24912   0.24959   0.24998   0.24999
     Eigenvalues ---    0.25000   0.30744   0.32958   0.34399   0.34485
     Eigenvalues ---    0.34562   0.35134   0.35157   0.35383   0.37474
     Eigenvalues ---    0.39990   0.43189   0.44233   0.45735   0.47369
     Eigenvalues ---    0.49871   0.51309   0.52025   0.53796   0.88547
     Eigenvalues ---    1.25984
 RFO step:  Lambda=-2.04219285D-03 EMin= 4.78918185D-03
 Quartic linear search produced a step of  0.09019.
 Iteration  1 RMS(Cart)=  0.08704228 RMS(Int)=  0.02457200
 Iteration  2 RMS(Cart)=  0.11346343 RMS(Int)=  0.00681990
 Iteration  3 RMS(Cart)=  0.01605489 RMS(Int)=  0.00010542
 Iteration  4 RMS(Cart)=  0.00016326 RMS(Int)=  0.00004926
 Iteration  5 RMS(Cart)=  0.00000002 RMS(Int)=  0.00004926
 Variable       Old X    -DE/DX   Delta X   Delta X   Delta X     New X
                                 (Linear)    (Quad)   (Total)
    R1        2.85174  -0.00034   0.00181   0.00001   0.00182   2.85356
    R2        2.06027   0.00020  -0.00060   0.00023  -0.00037   2.05989
    R3        2.06910  -0.00051   0.00031  -0.00136  -0.00105   2.06805
    R4        2.06883  -0.00015   0.00036  -0.00024   0.00013   2.06895
    R5        2.27394  -0.00732  -0.00347  -0.01062  -0.01409   2.25985
    R6        2.58936   0.00531   0.00035   0.01119   0.01154   2.60090
    R7        2.78395  -0.00103   0.00221  -0.00155   0.00066   2.78461
    R8        2.58942   0.00037   0.00034   0.00098   0.00132   2.59074
    R9        2.65184   0.00552   0.00192   0.01400   0.01594   2.66777
   R10        2.63155   0.00010  -0.00015   0.00053   0.00038   2.63193
   R11        2.54521  -0.00372  -0.00256  -0.00924  -0.01178   2.53343
   R12        2.71914   0.00101   0.00035   0.00289   0.00324   2.72238
   R13        2.52729  -0.00237  -0.00238  -0.00650  -0.00887   2.51842
   R14        2.64019   0.00001   0.00199   0.00098   0.00296   2.64315
   R15        2.05378   0.00013  -0.00007   0.00034   0.00026   2.05404
   R16        2.62836  -0.00007  -0.00020  -0.00020  -0.00042   2.62794
   R17        2.05023   0.00004  -0.00003   0.00009   0.00006   2.05029
   R18        2.04996  -0.00017  -0.00038  -0.00074  -0.00112   2.04885
   R19        2.19528   0.00029  -0.00019   0.00011  -0.00008   2.19519
    A1        1.88352  -0.00021  -0.00224  -0.00095  -0.00322   1.88030
    A2        1.94487  -0.00007   0.00231   0.00123   0.00352   1.94840
    A3        1.91772  -0.00195   0.00026  -0.01479  -0.01457   1.90315
    A4        1.91181   0.00091   0.00208   0.01126   0.01334   1.92514
    A5        1.91267   0.00086   0.00097   0.00518   0.00611   1.91878
    A6        1.89320   0.00049  -0.00335  -0.00172  -0.00510   1.88810
    A7        2.22096   0.00257   0.00477   0.01389   0.01852   2.23948
    A8        1.89256  -0.00468  -0.00179  -0.02063  -0.02257   1.86999
    A9        2.16944   0.00212  -0.00300   0.00738   0.00424   2.17367
   A10        1.92780  -0.00482   0.00619  -0.01662  -0.01043   1.91737
   A11        1.85216   0.00336  -0.00113   0.01349   0.01236   1.86451
   A12        2.14314   0.00505  -0.00293   0.01867   0.01569   2.15883
   A13        2.06092  -0.00385   0.00177  -0.01618  -0.01444   2.04648
   A14        2.07690  -0.00121   0.00108  -0.00317  -0.00210   2.07480
   A15        2.14515  -0.00157  -0.00028  -0.00615  -0.00651   2.13864
   A16        2.10830   0.00210  -0.00185   0.00761   0.00561   2.11392
   A17        2.02964  -0.00052   0.00212  -0.00107   0.00090   2.03054
   A18        2.04678   0.00308   0.00038   0.01202   0.01245   2.05923
   A19        2.16064  -0.00099   0.00017  -0.00599  -0.00582   2.15483
   A20        2.00965   0.00181  -0.00027   0.01150   0.01124   2.02089
   A21        2.11289  -0.00082   0.00009  -0.00552  -0.00542   2.10747
   A22        2.07204   0.00040   0.00057   0.00192   0.00245   2.07449
   A23        2.10519  -0.00058  -0.00007  -0.00335  -0.00341   2.10178
   A24        2.10583   0.00019  -0.00051   0.00145   0.00095   2.10678
   A25        2.06445   0.00030  -0.00191   0.00155  -0.00039   2.06406
   A26        2.08819  -0.00100  -0.00099  -0.00737  -0.00836   2.07983
   A27        2.13045   0.00071   0.00290   0.00592   0.00882   2.13927
   A28        3.14034   0.00031   0.00350   0.00719   0.01069   3.15103
   A29        3.12246   0.00124  -0.00176   0.02591   0.02415   3.14661
    D1       -0.14704   0.00041  -0.00017   0.00493   0.00478  -0.14226
    D2        3.01646   0.00004   0.00137  -0.02750  -0.02617   2.99029
    D3       -2.24666  -0.00053  -0.00272  -0.00908  -0.01176  -2.25842
    D4        0.91684  -0.00090  -0.00117  -0.04152  -0.04271   0.87413
    D5        1.93764   0.00019  -0.00019   0.00212   0.00196   1.93960
    D6       -1.18204  -0.00018   0.00136  -0.03032  -0.02898  -1.21103
    D7        3.06305  -0.00037  -0.00186  -0.00943  -0.01138   3.05167
    D8       -0.05743  -0.00074  -0.00039  -0.04080  -0.04110  -0.09854
    D9       -2.59434   0.00300   0.02544   0.38124   0.40668  -2.18766
   D10        0.94426   0.00029  -0.00611   0.01404   0.00793   0.95219
   D11       -2.26983  -0.00004  -0.00751   0.00265  -0.00487  -2.27470
   D12        3.08690  -0.00062  -0.00274  -0.01947  -0.02231   3.06459
   D13       -0.06971   0.00013  -0.00521   0.01302   0.00777  -0.06193
   D14        0.01844  -0.00019  -0.00135  -0.00747  -0.00884   0.00960
   D15       -3.13817   0.00057  -0.00382   0.02501   0.02125  -3.11692
   D16       -3.06552   0.00016   0.00471   0.01350   0.01814  -3.04738
   D17        0.06122   0.00035   0.00309   0.02076   0.02379   0.08501
   D18        0.00640   0.00011   0.00323   0.00352   0.00677   0.01317
   D19        3.13314   0.00031   0.00161   0.01078   0.01242  -3.13762
   D20       -0.02340   0.00006  -0.00061   0.00378   0.00312  -0.02028
   D21        3.13258  -0.00069   0.00173  -0.02742  -0.02566   3.10692
   D22        0.00391   0.00012   0.00072   0.00367   0.00442   0.00833
   D23       -3.13612   0.00012   0.00036   0.00357   0.00395  -3.13217
   D24        0.02007  -0.00012   0.00119  -0.00713  -0.00591   0.01416
   D25       -3.13871  -0.00014  -0.00064  -0.00586  -0.00649   3.13798
   D26       -3.12317  -0.00012   0.00158  -0.00701  -0.00541  -3.12857
   D27        0.00124  -0.00014  -0.00025  -0.00574  -0.00599  -0.00475
   D28       -0.02431   0.00002  -0.00314   0.00319   0.00004  -0.02427
   D29        3.13252  -0.00017  -0.00149  -0.00414  -0.00566   3.12686
   D30        3.13448   0.00005  -0.00131   0.00197   0.00066   3.13515
   D31        0.00812  -0.00014   0.00034  -0.00536  -0.00503   0.00309
         Item               Value     Threshold  Converged?
 Maximum Force            0.007321     0.000450     NO 
 RMS     Force            0.001908     0.000300     NO 
 Maximum Displacement     0.773268     0.001800     NO 
 RMS     Displacement     0.208267     0.001200     NO 
 Predicted change in Energy=-1.402001D-03
 GradGradGradGradGradGradGradGradGradGradGradGradGradGradGradGradGradGrad

                          Input orientation:                          
 ---------------------------------------------------------------------
 Center     Atomic      Atomic             Coordinates (Angstroms)
 Number     Number       Type             X           Y           Z
 ---------------------------------------------------------------------
      1          6           0        1.154403   -0.150580   -0.127426
      2          6           0        0.674323   -1.556493   -0.397883
      3          8           0        0.745636   -2.514212    0.314695
      4          8           0        0.104454   -1.556617   -1.650700
      5          8           0       -0.275368   -2.929558   -2.027683
      6          6           0        0.323986   -3.190473   -3.232767
      7          6           0        1.709957   -3.054015   -3.463912
      8          7           0        2.284444   -3.397400   -4.625528
      9          6           0        1.507439   -3.906828   -5.580941
     10          6           0        0.128461   -4.091257   -5.436901
     11          6           0       -0.478517   -3.712037   -4.244564
     12          6           0        2.589191   -2.548552   -2.440759
     13          7           0        3.307704   -2.143253   -1.622901
     14          1           0        1.465251   -0.100886    0.916178
     15          1           0        0.371895    0.588217   -0.326148
     16          1           0        2.004916    0.068417   -0.781146
     17          1           0        2.011377   -4.181144   -6.504122
     18          1           0       -0.457949   -4.507739   -6.249193
     19          1           0       -1.544122   -3.815411   -4.073400
 ---------------------------------------------------------------------
                    Distance matrix (angstroms):
                    1          2          3          4          5
     1  C    0.000000
     2  C    1.510039   0.000000
     3  O    2.439122   1.195859   0.000000
     4  O    2.323725   1.376336   2.278351   0.000000
     5  O    3.657587   2.333124   2.588763   1.473550   0.000000
     6  C    4.424216   3.290773   3.635877   2.284866   1.370959
     7  C    4.457658   3.565900   3.936899   2.847381   2.453520
     8  N    5.661427   4.884097   5.249167   4.121946   3.676998
     9  C    6.631355   5.751717   6.105592   4.789432   4.093788
    10  C    6.691190   5.666982   5.995734   4.556346   3.624278
    11  C    5.683417   4.557670   4.870336   3.422546   2.359683
    12  C    3.627726   2.970563   3.315479   2.789632   2.919160
    13  N    3.293007   2.963048   3.233587   3.256644   3.690600
    14  H    1.090048   2.114502   2.589164   3.249583   4.438182
    15  H    1.094363   2.167116   3.189894   2.535010   3.960924
    16  H    1.094843   2.134877   3.075162   2.647379   3.967544
    17  H    7.592240   6.779577   7.132814   5.837825   5.180172
    18  H    7.685086   6.650542   6.964725   5.492864   4.510558
    19  H    6.023598   4.851147   5.117762   3.699922   2.565040
                    6          7          8          9         10
     6  C    0.000000
     7  C    1.411724   0.000000
     8  N    2.413711   1.340634   0.000000
     9  C    2.725372   2.291313   1.332692   0.000000
    10  C    2.389110   2.733072   2.405831   1.398693   0.000000
    11  C    1.392757   2.414918   2.806792   2.401639   1.390647
    12  C    2.484048   1.440621   2.363606   3.588293   4.172769
    13  N    3.548368   2.602232   3.411117   4.692253   5.333751
    14  H    5.297337   5.288294   6.499892   7.529910   7.620478
    15  H    4.767518   4.990173   6.166657   7.007692   6.933724
    16  H    4.410933   4.127204   5.183560   6.252047   6.519204
    17  H    3.811887   3.256401   2.053761   1.086952   2.166198
    18  H    3.383111   3.817187   3.374886   2.161112   1.084967
    19  H    2.141737   3.397091   3.890693   3.404858   2.175491
                   11         12         13         14         15
    11  C    0.000000
    12  C    3.744095   0.000000
    13  N    4.865149   1.161646   0.000000
    14  H    6.591806   4.303875   3.743370   0.000000
    15  H    5.879572   4.384895   4.214436   1.792670   0.000000
    16  H    5.696888   3.153445   2.701350   1.789081   1.773126
    17  H    3.394884   4.417029   5.446080   8.485731   7.975091
    18  H    2.156873   5.256201   6.416660   8.629114   7.857472
    19  H    1.084203   4.621117   5.686939   6.910131   6.091384
                   16         17         18         19
    16  H    0.000000
    17  H    7.128202   0.000000
    18  H    7.543636   2.503842   0.000000
    19  H    6.206345   4.322470   2.528471   0.000000
 Stoichiometry    C8H6N2O3
 Framework group  C1[X(C8H6N2O3)]
 Deg. of freedom    51
 Full point group                 C1      NOp   1
 Largest Abelian subgroup         C1      NOp   1
 Largest concise Abelian subgroup C1      NOp   1
                         Standard orientation:                         
 ---------------------------------------------------------------------
 Center     Atomic      Atomic             Coordinates (Angstroms)
 Number     Number       Type             X           Y           Z
 ---------------------------------------------------------------------
      1          6           0        3.324069    0.154669    0.998094
      2          6           0        2.404588   -0.439586   -0.041922
      3          8           0        2.583199   -0.537532   -1.220303
      4          8           0        1.279519   -0.881534    0.616260
      5          8           0        0.285508   -1.362752   -0.359302
      6          6           0       -0.876720   -0.678979   -0.111901
      7          6           0       -0.964031    0.729570   -0.075407
      8          7           0       -2.127804    1.375962    0.083060
      9          6           0       -3.238903    0.647306    0.185949
     10          6           0       -3.250694   -0.750790    0.146828
     11          6           0       -2.044171   -1.428632    0.009968
     12          6           0        0.208704    1.552404   -0.227155
     13          7           0        1.147311    2.225803   -0.349506
     14          1           0        4.278512    0.365752    0.515716
     15          1           0        3.468206   -0.524103    1.844335
     16          1           0        2.883366    1.082934    1.375966
     17          1           0       -4.162690    1.207762    0.304155
     18          1           0       -4.184723   -1.295128    0.238696
     19          1           0       -1.982087   -2.510797   -0.013705
 ---------------------------------------------------------------------
 Rotational constants (GHZ):           1.7663222           0.5790295           0.4797646
 Standard basis: 6-31G(d) (6D, 7F)
 There are   207 symmetry adapted cartesian basis functions of A   symmetry.
 There are   207 symmetry adapted basis functions of A   symmetry.
   207 basis functions,   388 primitive gaussians,   207 cartesian basis functions
    46 alpha electrons       46 beta electrons
       nuclear repulsion energy       752.2662708502 Hartrees.
 NAtoms=   19 NActive=   19 NUniq=   19 SFac= 1.00D+00 NAtFMM=   60 NAOKFM=F Big=F
 Integral buffers will be    131072 words long.
 Raffenetti 2 integral format.
 Two-electron integral symmetry is turned on.
 Nuclear repulsion after empirical dispersion term =      752.2295841392 Hartrees.
 One-electron integrals computed using PRISM.
 NBasis=   207 RedAO= T EigKep=  6.88D-04  NBF=   207
 NBsUse=   207 1.00D-06 EigRej= -1.00D+00 NBFU=   207
 Initial guess from the checkpoint file:  "JID_3612.chk"
 B after Tr=     0.000000   -0.000000    0.000000
         Rot=    0.999292   -0.030048   -0.001407    0.022590 Ang=  -4.31 deg.
 ExpMin= 1.61D-01 ExpMax= 5.48D+03 ExpMxC= 8.25D+02 IAcc=2 IRadAn=         4 AccDes= 0.00D+00
 Harris functional with IExCor=  402 and IRadAn=       4 diagonalized for initial guess.
 HarFok:  IExCor=  402 AccDes= 0.00D+00 IRadAn=         4 IDoV= 1 UseB2=F ITyADJ=14
 ICtDFT=  3500011 ScaDFX=  1.000000  1.000000  1.000000  1.000000
 FoFCou: FMM=F IPFlag=           0 FMFlag=      100000 FMFlg1=           0
         NFxFlg=           0 DoJE=T BraDBF=F KetDBF=T FulRan=T
         wScrn=  0.000000 ICntrl=       500 IOpCl=  0 I1Cent=   200000004 NGrid=           0
         NMat0=    1 NMatS0=      1 NMatT0=    0 NMatD0=    1 NMtDS0=    0 NMtDT0=    0
 Petite list used in FoFCou.
 Keep R1 ints in memory in canonical form, NReq=236238843.
 Requested convergence on RMS density matrix=1.00D-08 within  32 cycles.
 Requested convergence on MAX density matrix=1.00D-06.
 Requested convergence on             energy=1.00D-06.
 No special actions if energy rises.
 Integral accuracy reduced to 1.0D-05 until final iterations.
 Initial convergence to 1.0D-05 achieved.  Increase integral accuracy.
 SCF Done:  E(RB3LYP) =  -643.559694326     A.U. after   16 cycles
            NFock= 16  Conv=0.58D-08     -V/T= 2.0090
 QCSCF skips out because SCF is already converged.
 Calling FoFJK, ICntrl=      2127 FMM=F ISym2X=0 I1Cent= 0 IOpClX= 0 NMat=1 NMatS=1 NMatT=0.
 ***** Axes restored to original set *****
 -------------------------------------------------------------------
 Center     Atomic                   Forces (Hartrees/Bohr)
 Number     Number              X              Y              Z
 -------------------------------------------------------------------
      1        6           0.000012860    0.001003484   -0.000283797
      2        6          -0.000962582    0.002432517    0.008413922
      3        8           0.000582935   -0.000691194    0.001056530
      4        8          -0.001936271   -0.002093974   -0.006225971
      5        8          -0.000143183    0.003258516   -0.002899441
      6        6           0.001700054   -0.001391118    0.002329851
      7        6          -0.001726755   -0.001104272    0.001359055
      8        7           0.000337934    0.000593906    0.000710739
      9        6          -0.001062279   -0.000245224   -0.001003109
     10        6           0.000169409    0.000083242   -0.000479699
     11        6           0.001226815   -0.000217940   -0.000297911
     12        6           0.001054676   -0.000299505   -0.003386678
     13        7           0.000994907   -0.000176770   -0.000712502
     14        1           0.000555548    0.000686979   -0.000015574
     15        1          -0.000422284   -0.000936349    0.000258649
     16        1           0.000020853   -0.000623687    0.001488129
     17        1          -0.000277077   -0.000220857   -0.000108493
     18        1           0.000074782   -0.000077691   -0.000195648
     19        1          -0.000200343    0.000019936   -0.000008054
 -------------------------------------------------------------------
 Cartesian Forces:  Max     0.008413922 RMS     0.001810843

 GradGradGradGradGradGradGradGradGradGradGradGradGradGradGradGradGradGrad
 Berny optimization.
 Using GEDIIS/GDIIS optimizer.
 FormGI is forming the generalized inverse of G from B-inverse, IUseBI=4.
 Internal  Forces:  Max     0.018412050 RMS     0.003658605
 Search for a local minimum.
 Step number   3 out of a maximum of   89
 All quantities printed in internal units (Hartrees-Bohrs-Radians)
 Mixed Optimization -- RFO/linear search
 Update second derivatives using D2CorX and points    1    3    2
 DE=  2.34D-04 DEPred=-1.40D-03 R=-1.67D-01
 Trust test=-1.67D-01 RLast= 4.22D-01 DXMaxT set to 2.52D-01
 ITU= -1  1  0
 Use linear search instead of GDIIS.
     Eigenvalues ---    0.00771   0.01066   0.01954   0.02112   0.02139
     Eigenvalues ---    0.02184   0.02190   0.02213   0.02237   0.02273
     Eigenvalues ---    0.02284   0.02306   0.02758   0.04711   0.04958
     Eigenvalues ---    0.07031   0.07710   0.13467   0.15998   0.16000
     Eigenvalues ---    0.16000   0.16016   0.16185   0.19079   0.22252
     Eigenvalues ---    0.23443   0.24910   0.24950   0.24999   0.25000
     Eigenvalues ---    0.27280   0.32670   0.32732   0.34395   0.34460
     Eigenvalues ---    0.34574   0.35133   0.35176   0.35384   0.37261
     Eigenvalues ---    0.40185   0.41279   0.44281   0.45674   0.47374
     Eigenvalues ---    0.49348   0.51362   0.52828   0.53912   0.88347
     Eigenvalues ---    1.25977
 RFO step:  Lambda=-2.52647808D-03 EMin= 7.70968166D-03
 Quartic linear search produced a step of -0.47252.
 Iteration  1 RMS(Cart)=  0.16714451 RMS(Int)=  0.00755044
 Iteration  2 RMS(Cart)=  0.01865121 RMS(Int)=  0.00016220
 Iteration  3 RMS(Cart)=  0.00020877 RMS(Int)=  0.00011389
 Iteration  4 RMS(Cart)=  0.00000004 RMS(Int)=  0.00011389
 Variable       Old X    -DE/DX   Delta X   Delta X   Delta X     New X
                                 (Linear)    (Quad)   (Total)
    R1        2.85356   0.00043  -0.00086   0.00400   0.00314   2.85670
    R2        2.05989   0.00017   0.00018  -0.00049  -0.00032   2.05958
    R3        2.06805  -0.00038   0.00050  -0.00205  -0.00155   2.06649
    R4        2.06895  -0.00100  -0.00006  -0.00116  -0.00122   2.06773
    R5        2.25985   0.00122   0.00666  -0.02145  -0.01479   2.24506
    R6        2.60090   0.00985  -0.00545   0.02724   0.02179   2.62269
    R7        2.78461   0.00044  -0.00031   0.00228   0.00197   2.78657
    R8        2.59074   0.00315  -0.00062   0.00522   0.00459   2.59533
    R9        2.66777   0.00226  -0.00753   0.02720   0.01967   2.68744
   R10        2.63193   0.00160  -0.00018   0.00230   0.00211   2.63404
   R11        2.53343   0.00096   0.00557  -0.01741  -0.01184   2.52159
   R12        2.72238  -0.00183  -0.00153   0.00267   0.00114   2.72352
   R13        2.51842   0.00019   0.00419  -0.01388  -0.00968   2.50874
   R14        2.64315  -0.00257  -0.00140   0.00215   0.00076   2.64390
   R15        2.05404   0.00002  -0.00012   0.00040   0.00028   2.05432
   R16        2.62794  -0.00040   0.00020  -0.00129  -0.00110   2.62684
   R17        2.05029   0.00014  -0.00003   0.00028   0.00025   2.05054
   R18        2.04885   0.00019   0.00053  -0.00152  -0.00099   2.04785
   R19        2.19519   0.00005   0.00004  -0.00016  -0.00012   2.19508
    A1        1.88030   0.00118   0.00152  -0.00233  -0.00082   1.87947
    A2        1.94840  -0.00134  -0.00166   0.00245   0.00076   1.94915
    A3        1.90315   0.00011   0.00688  -0.02192  -0.01506   1.88808
    A4        1.92514  -0.00002  -0.00630   0.02127   0.01495   1.94010
    A5        1.91878  -0.00095  -0.00289   0.00568   0.00278   1.92156
    A6        1.88810   0.00099   0.00241  -0.00546  -0.00308   1.88501
    A7        2.23948  -0.00116  -0.00875   0.02699   0.01776   2.25724
    A8        1.86999   0.00091   0.01067  -0.03320  -0.02300   1.84699
    A9        2.17367   0.00025  -0.00200   0.00560   0.00314   2.17681
   A10        1.91737   0.00259   0.00493  -0.00843  -0.00350   1.91387
   A11        1.86451   0.01841  -0.00584   0.05563   0.04979   1.91430
   A12        2.15883   0.01319  -0.00742   0.04939   0.04194   2.20077
   A13        2.04648  -0.00972   0.00682  -0.04121  -0.03437   2.01210
   A14        2.07480  -0.00346   0.00099  -0.00954  -0.00857   2.06624
   A15        2.13864  -0.00083   0.00308  -0.01119  -0.00810   2.13054
   A16        2.11392   0.00746  -0.00265   0.02258   0.01994   2.13386
   A17        2.03054  -0.00663  -0.00042  -0.01177  -0.01218   2.01836
   A18        2.05923   0.00240  -0.00588   0.02415   0.01827   2.07750
   A19        2.15483  -0.00099   0.00275  -0.01153  -0.00878   2.14605
   A20        2.02089   0.00085  -0.00531   0.01950   0.01419   2.03508
   A21        2.10747   0.00013   0.00256  -0.00797  -0.00541   2.10206
   A22        2.07449  -0.00057  -0.00116   0.00179   0.00061   2.07510
   A23        2.10178   0.00010   0.00161  -0.00473  -0.00311   2.09867
   A24        2.10678   0.00047  -0.00045   0.00288   0.00244   2.10922
   A25        2.06406   0.00344   0.00019   0.00628   0.00644   2.07050
   A26        2.07983  -0.00170   0.00395  -0.01685  -0.01290   2.06693
   A27        2.13927  -0.00174  -0.00417   0.01066   0.00649   2.14576
   A28        3.15103   0.00241  -0.00505   0.04344   0.03839   3.18942
   A29        3.14661   0.00112  -0.01141   0.04811   0.03670   3.18331
    D1       -0.14226   0.00023  -0.00226   0.00770   0.00550  -0.13676
    D2        2.99029  -0.00034   0.01237  -0.06658  -0.05428   2.93602
    D3       -2.25842   0.00031   0.00556  -0.01863  -0.01301  -2.27143
    D4        0.87413  -0.00026   0.02018  -0.09291  -0.07278   0.80135
    D5        1.93960  -0.00016  -0.00093   0.00089   0.00001   1.93961
    D6       -1.21103  -0.00073   0.01370  -0.07339  -0.05976  -1.27079
    D7        3.05167   0.00143   0.00538   0.01540   0.02056   3.07223
    D8       -0.09854   0.00088   0.01942  -0.05521  -0.03558  -0.13411
    D9       -2.18766  -0.01248  -0.19216   0.04620  -0.14596  -2.33362
   D10        0.95219   0.00039  -0.00375   0.01197   0.00830   0.96049
   D11       -2.27470   0.00032   0.00230  -0.00763  -0.00540  -2.28010
   D12        3.06459  -0.00013   0.01054  -0.03323  -0.02293   3.04166
   D13       -0.06193  -0.00069  -0.00367  -0.00127  -0.00503  -0.06696
[...]
    97    O    5  px     Ryd( 5p)     0.00002       5.18098
    98    O    5  py     Val( 2p)     0.79944      -0.19832
    99    O    5  py     Ryd( 3p)     0.00185       0.75783
   100    O    5  py     Ryd( 4p)     0.00024       1.11948
   101    O    5  py     Ryd( 5p)     0.00005       5.09058
   102    O    5  pz     Val( 2p)     0.85773      -0.18977
   103    O    5  pz     Ryd( 3p)     0.00170       0.67109
   104    O    5  pz     Ryd( 4p)     0.00031       1.07955
   105    O    5  pz     Ryd( 5p)     0.00001       5.04964
   106    O    5  dxy    Ryd( 3d)     0.00074       3.53547
   107    O    5  dxz    Ryd( 3d)     0.00042       3.16659
   108    O    5  dyz    Ryd( 3d)     0.00050       3.09291
   109    O    5  dx2y2  Ryd( 3d)     0.00032       3.26531
   110    O    5  dz2    Ryd( 3d)     0.00030       3.20334
 
   111    C    6  S      Cor( 1S)     0.99935      -9.96603
   112    C    6  S      Val( 2S)     0.41491       0.00733
   113    C    6  S      Ryd( 3S)     0.00155       0.84462
   114    C    6  S      Ryd( 4S)     0.00040       1.06870
   115    C    6  S      Ryd( 5S)     0.00001      23.12944
   116    C    6  px     Val( 2p)     0.41491       0.08122
   117    C    6  px     Ryd( 4p)     0.00376       1.29575
   118    C    6  px     Ryd( 3p)     0.00006       0.76742
   119    C    6  px     Ryd( 5p)     0.00008       3.16520
   120    C    6  py     Val( 2p)     0.50663       0.09113
   121    C    6  py     Ryd( 4p)     0.00306       1.38343
   122    C    6  py     Ryd( 3p)     0.00012       0.74267
   123    C    6  py     Ryd( 5p)     0.00008       2.99522
   124    C    6  pz     Val( 2p)     0.48553       0.02289
   125    C    6  pz     Ryd( 4p)     0.00061       0.79041
   126    C    6  pz     Ryd( 3p)     0.00013       0.63099
   127    C    6  pz     Ryd( 5p)     0.00002       2.82496
   128    C    6  dxy    Ryd( 3d)     0.00080       2.73570
   129    C    6  dxz    Ryd( 3d)     0.00101       1.75666
   130    C    6  dyz    Ryd( 3d)     0.00052       1.85126
   131    C    6  dx2y2  Ryd( 3d)     0.00079       2.71197
   132    C    6  dz2    Ryd( 3d)     0.00036       2.23771
 
   133    C    7  S      Cor( 1S)     0.99939      -9.92334
   134    C    7  S      Val( 2S)     0.41260       0.05334
   135    C    7  S      Ryd( 3S)     0.00242       0.91935
   136    C    7  S      Ryd( 4S)     0.00062       1.11005
   137    C    7  S      Ryd( 5S)     0.00002      22.96492
   138    C    7  px     Val( 2p)     0.48792       0.09773
   139    C    7  px     Ryd( 4p)     0.00309       1.24923
   140    C    7  px     Ryd( 3p)     0.00071       1.13180
   141    C    7  px     Ryd( 5p)     0.00015       2.19449
   142    C    7  py     Val( 2p)     0.53111       0.08526
   143    C    7  py     Ryd( 3p)     0.00276       1.28529
   144    C    7  py     Ryd( 4p)     0.00074       1.31688
   145    C    7  py     Ryd( 5p)     0.00010       1.46514
   146    C    7  pz     Val( 2p)     0.49227       0.05149
   147    C    7  pz     Ryd( 4p)     0.00089       0.73457
   148    C    7  pz     Ryd( 3p)     0.00014       0.73363
   149    C    7  pz     Ryd( 5p)     0.00001       2.33993
   150    C    7  dxy    Ryd( 3d)     0.00067       2.81174
   151    C    7  dxz    Ryd( 3d)     0.00054       1.79687
   152    C    7  dyz    Ryd( 3d)     0.00032       1.84285
   153    C    7  dx2y2  Ryd( 3d)     0.00068       2.80794
   154    C    7  dz2    Ryd( 3d)     0.00031       2.33094
 
   155    N    8  S      Cor( 1S)     0.99969     -13.96385
   156    N    8  S      Val( 2S)     0.67321      -0.33757
   157    N    8  S      Ryd( 4S)     0.00068       1.90361
   158    N    8  S      Ryd( 3S)     0.00003       0.95337
   159    N    8  S      Ryd( 5S)     0.00000      35.42494
   160    N    8  px     Val( 2p)     0.59585      -0.00344
   161    N    8  px     Ryd( 4p)     0.00188       1.10636
   162    N    8  px     Ryd( 3p)     0.00089       0.84349
   163    N    8  px     Ryd( 5p)     0.00003       4.74355
   164    N    8  py     Val( 2p)     0.84062      -0.06429
   165    N    8  py     Ryd( 3p)     0.00448       0.70456
   166    N    8  py     Ryd( 4p)     0.00026       0.97261
   167    N    8  py     Ryd( 5p)     0.00002       4.27583
   168    N    8  pz     Val( 2p)     0.54757      -0.01086
   169    N    8  pz     Ryd( 3p)     0.00055       0.63736
   170    N    8  pz     Ryd( 4p)     0.00028       0.81914
   171    N    8  pz     Ryd( 5p)     0.00002       4.02681
   172    N    8  dxy    Ryd( 3d)     0.00078       3.23730
   173    N    8  dxz    Ryd( 3d)     0.00022       2.45989
   174    N    8  dyz    Ryd( 3d)     0.00070       2.32525
   175    N    8  dx2y2  Ryd( 3d)     0.00056       2.86522
   176    N    8  dz2    Ryd( 3d)     0.00043       2.80335
 
   177    C    9  S      Cor( 1S)     0.99960      -9.92397
   178    C    9  S      Val( 2S)     0.45603      -0.01113
   179    C    9  S      Ryd( 4S)     0.00124       0.91332
   180    C    9  S      Ryd( 3S)     0.00006       0.69245
   181    C    9  S      Ryd( 5S)     0.00001      23.26095
   182    C    9  px     Val( 2p)     0.51546       0.10536
   183    C    9  px     Ryd( 4p)     0.00380       1.17785
   184    C    9  px     Ryd( 3p)     0.00011       0.50530
   185    C    9  px     Ryd( 5p)     0.00004       3.06475
   186    C    9  py     Val( 2p)     0.51794       0.10641
   187    C    9  py     Ryd( 4p)     0.00502       1.03681
   188    C    9  py     Ryd( 3p)     0.00013       0.61839
   189    C    9  py     Ryd( 5p)     0.00007       3.03557
   190    C    9  pz     Val( 2p)     0.51034       0.02346
   191    C    9  pz     Ryd( 4p)     0.00113       0.73199
   192    C    9  pz     Ryd( 3p)     0.00025       0.42357
   193    C    9  pz     Ryd( 5p)     0.00001       2.77701
   194    C    9  dxy    Ryd( 3d)     0.00070       2.66306
   195    C    9  dxz    Ryd( 3d)     0.00047       1.73684
   196    C    9  dyz    Ryd( 3d)     0.00027       1.80669
   197    C    9  dx2y2  Ryd( 3d)     0.00076       2.66853
   198    C    9  dz2    Ryd( 3d)     0.00022       2.17750
 
   199    C   10  S      Cor( 1S)     0.99957      -9.87897
   200    C   10  S      Val( 2S)     0.46922      -0.01002
   201    C   10  S      Ryd( 3S)     0.00068       0.95738
   202    C   10  S      Ryd( 4S)     0.00007       1.25620
   203    C   10  S      Ryd( 5S)     0.00001      22.82940
   204    C   10  px     Val( 2p)     0.56229       0.09302
   205    C   10  px     Ryd( 3p)     0.00221       0.92623
   206    C   10  px     Ryd( 4p)     0.00033       1.16948
   207    C   10  px     Ryd( 5p)     0.00004       2.85067
   208    C   10  py     Val( 2p)     0.54490       0.08728
   209    C   10  py     Ryd( 3p)     0.00290       0.80269
   210    C   10  py     Ryd( 4p)     0.00032       1.07489
   211    C   10  py     Ryd( 5p)     0.00005       2.91960
   212    C   10  pz     Val( 2p)     0.46709       0.04639
   213    C   10  pz     Ryd( 3p)     0.00075       0.47222
   214    C   10  pz     Ryd( 4p)     0.00010       0.79560
   215    C   10  pz     Ryd( 5p)     0.00002       2.63302
   216    C   10  dxy    Ryd( 3d)     0.00033       2.65286
   217    C   10  dxz    Ryd( 3d)     0.00024       1.79263
   218    C   10  dyz    Ryd( 3d)     0.00018       1.81429
   219    C   10  dx2y2  Ryd( 3d)     0.00034       2.73069
   220    C   10  dz2    Ryd( 3d)     0.00027       2.22315
 
   221    C   11  S      Cor( 1S)     0.99952      -9.89509
   222    C   11  S      Val( 2S)     0.47351      -0.02377
   223    C   11  S      Ryd( 4S)     0.00082       1.01873
   224    C   11  S      Ryd( 3S)     0.00006       0.65795
   225    C   11  S      Ryd( 5S)     0.00001      23.41443
   226    C   11  px     Val( 2p)     0.53322       0.08070
   227    C   11  px     Ryd( 4p)     0.00273       0.95812
   228    C   11  px     Ryd( 3p)     0.00021       0.62414
   229    C   11  px     Ryd( 5p)     0.00009       3.17235
   230    C   11  py     Val( 2p)     0.58267       0.07788
   231    C   11  py     Ryd( 4p)     0.00282       1.26647
   232    C   11  py     Ryd( 3p)     0.00011       0.81232
   233    C   11  py     Ryd( 5p)     0.00002       3.05016
   234    C   11  pz     Val( 2p)     0.51247       0.02394
   235    C   11  pz     Ryd( 4p)     0.00051       0.64721
   236    C   11  pz     Ryd( 3p)     0.00022       0.49550
   237    C   11  pz     Ryd( 5p)     0.00002       2.79231
   238    C   11  dxy    Ryd( 3d)     0.00034       2.79056
   239    C   11  dxz    Ryd( 3d)     0.00022       1.82414
   240    C   11  dyz    Ryd( 3d)     0.00023       1.77206
   241    C   11  dx2y2  Ryd( 3d)     0.00032       2.63640
   242    C   11  dz2    Ryd( 3d)     0.00023       2.23260
 
   243    C   12  S      Cor( 1S)     0.99964      -9.91480
   244    C   12  S      Val( 2S)     0.42234       0.05047
   245    C   12  S      Ryd( 4S)     0.00594       0.96929
   246    C   12  S      Ryd( 5S)     0.00002      23.17300
   247    C   12  S      Ryd( 3S)     0.00002       0.70122
   248    C   12  px     Val( 2p)     0.47620       0.15844
   249    C   12  px     Ryd( 4p)     0.00606       1.20491
   250    C   12  px     Ryd( 3p)     0.00006       0.71881
   251    C   12  px     Ryd( 5p)     0.00003       2.73301
   252    C   12  py     Val( 2p)     0.47016       0.12859
   253    C   12  py     Ryd( 4p)     0.00531       1.09505
   254    C   12  py     Ryd( 3p)     0.00009       0.73417
   255    C   12  py     Ryd( 5p)     0.00003       2.66862
   256    C   12  pz     Val( 2p)     0.46211       0.06938
   257    C   12  pz     Ryd( 4p)     0.00029       0.79820
   258    C   12  pz     Ryd( 3p)     0.00022       0.61223
   259    C   12  pz     Ryd( 5p)     0.00001       2.62915
   260    C   12  dxy    Ryd( 3d)     0.00025       3.13593
   261    C   12  dxz    Ryd( 3d)     0.00035       2.06746
   262    C   12  dyz    Ryd( 3d)     0.00023       1.92134
   263    C   12  dx2y2  Ryd( 3d)     0.00043       2.53180
   264    C   12  dz2    Ryd( 3d)     0.00009       2.17309
 
   265    N   13  S      Cor( 1S)     0.99978     -13.89046
   266    N   13  S      Val( 2S)     0.78767      -0.39675
   267    N   13  S      Ryd( 4S)     0.00242       2.04655
   268    N   13  S      Ryd( 3S)     0.00009       1.08129
   269    N   13  S      Ryd( 5S)     0.00000      35.25603
   270    N   13  px     Val( 2p)     0.68063      -0.01221
   271    N   13  px     Ryd( 3p)     0.00084       0.75387
   272    N   13  px     Ryd( 4p)     0.00013       0.97905
   273    N   13  px     Ryd( 5p)     0.00005       4.46482
   274    N   13  py     Val( 2p)     0.63925      -0.00509
   275    N   13  py     Ryd( 3p)     0.00062       0.65759
   276    N   13  py     Ryd( 4p)     0.00005       0.93321
   277    N   13  py     Ryd( 5p)     0.00003       4.34760
   278    N   13  pz     Val( 2p)     0.55225       0.01757
   279    N   13  pz     Ryd( 3p)     0.00040       0.60116
   280    N   13  pz     Ryd( 4p)     0.00008       0.83429
   281    N   13  pz     Ryd( 5p)     0.00001       4.07701
   282    N   13  dxy    Ryd( 3d)     0.00211       2.65190
   283    N   13  dxz    Ryd( 3d)     0.00098       2.21108
   284    N   13  dyz    Ryd( 3d)     0.00076       2.19497
   285    N   13  dx2y2  Ryd( 3d)     0.00175       2.31710
   286    N   13  dz2    Ryd( 3d)     0.00073       2.33386
 
   287    H   14  S      Val( 1S)     0.39424       0.12529
   288    H   14  S      Ryd( 3S)     0.00041       0.67708
   289    H   14  S      Ryd( 4S)     0.00014       2.15165
   290    H   14  S      Ryd( 2S)     0.00005       0.34237
   291    H   14  px     Ryd( 2p)     0.00014       2.59773
   292    H   14  py     Ryd( 2p)     0.00007       1.90580
   293    H   14  pz     Ryd( 2p)     0.00008       1.96650
 
   294    H   15  S      Val( 1S)     0.39078       0.12918
   295    H   15  S      Ryd( 2S)     0.00024       0.46005
   296    H   15  S      Ryd( 3S)     0.00038       0.69267
   297    H   15  S      Ryd( 4S)     0.00016       1.83535
   298    H   15  px     Ryd( 2p)     0.00006       1.83212
   299    H   15  py     Ryd( 2p)     0.00007       1.90412
   300    H   15  pz     Ryd( 2p)     0.00014       2.74480
 
   301    H   16  S      Val( 1S)     0.36670       0.16200
   302    H   16  S      Ryd( 2S)     0.00089       0.36570
   303    H   16  S      Ryd( 3S)     0.00024       0.69051
   304    H   16  S      Ryd( 4S)     0.00013       2.24457
   305    H   16  px     Ryd( 2p)     0.00010       1.89840
   306    H   16  py     Ryd( 2p)     0.00014       2.77586
   307    H   16  pz     Ryd( 2p)     0.00007       1.89965
 
   308    H   17  S      Val( 1S)     0.41813       0.16027
   309    H   17  S      Ryd( 3S)     0.00076       0.87856
   310    H   17  S      Ryd( 4S)     0.00007       1.62650
   311    H   17  S      Ryd( 2S)     0.00003       0.80526
   312    H   17  px     Ryd( 2p)     0.00027       2.66630
   313    H   17  py     Ryd( 2p)     0.00011       2.26834
   314    H   17  pz     Ryd( 2p)     0.00013       1.72500
 
   315    H   18  S      Val( 1S)     0.41040       0.17161
   316    H   18  S      Ryd( 3S)     0.00071       0.65913
   317    H   18  S      Ryd( 4S)     0.00010       2.23135
   318    H   18  S      Ryd( 2S)     0.00003       0.40049
   319    H   18  px     Ryd( 2p)     0.00019       2.63450
   320    H   18  py     Ryd( 2p)     0.00010       2.32191
   321    H   18  pz     Ryd( 2p)     0.00009       1.73405
 
   322    H   19  S      Val( 1S)     0.40016       0.17029
   323    H   19  S      Ryd( 3S)     0.00056       0.97896
   324    H   19  S      Ryd( 4S)     0.00010       2.05921
   325    H   19  S      Ryd( 2S)     0.00002       0.29885
   326    H   19  px     Ryd( 2p)     0.00007       2.12593
   327    H   19  py     Ryd( 2p)     0.00022       2.84539
   328    H   19  pz     Ryd( 2p)     0.00009       1.73842

 WARNING:  Population inversion found on atom  C    1
           Population inversion found on atom  C    2
           Population inversion found on atom  O    3
           Population inversion found on atom  O    4
           Population inversion found on atom  O    5
           Population inversion found on atom  C    6
           Population inversion found on atom  C    7
           Population inversion found on atom  N    8
           Population inversion found on atom  C    9
           Population inversion found on atom  C   11
           Population inversion found on atom  C   12
           Population inversion found on atom  N   13
           Population inversion found on atom  H   14
           Population inversion found on atom  H   15
           Population inversion found on atom  H   17
           Population inversion found on atom  H   18
           Population inversion found on atom  H   19


 Summary of Natural Population Analysis:                  
                                                          
                                       Natural Population 
                Natural  -----------------------------------------------
    Atom  No    Charge         Core      Valence    Rydberg      Total
 -----------------------------------------------------------------------
      C    1   -0.34115      0.99960     2.33666    0.00488     3.34115
      C    2    0.40250      0.99974     1.57238    0.02537     2.59750
      O    3   -0.28880      0.99986     3.28287    0.00608     4.28880
      O    4   -0.12730      0.99988     3.11910    0.00832     4.12730
      O    5   -0.12040      0.99985     3.11112    0.00942     4.12040
      C    6    0.16532      0.99935     1.82197    0.01336     2.83468
      C    7    0.06256      0.99939     1.92389    0.01416     2.93744
      N    8   -0.16874      0.99969     2.65725    0.01180     3.66874
      C    9   -0.01368      0.99960     1.99977    0.01431     3.01368
      C   10   -0.05188      0.99957     2.04349    0.00882     3.05188
      C   11   -0.11035      0.99952     2.10187    0.00896     3.11035
      C   12    0.15011      0.99964     1.83080    0.01944     2.84989
      N   13   -0.17063      0.99978     2.65980    0.01106     3.67063
      H   14    0.10488      0.00000     0.39424    0.00089     0.39512
      H   15    0.10817      0.00000     0.39078    0.00105     0.39183
      H   16    0.13173      0.00000     0.36670    0.00157     0.36827
      H   17    0.08050      0.00000     0.41813    0.00136     0.41950
      H   18    0.08838      0.00000     0.41040    0.00122     0.41162
      H   19    0.09878      0.00000     0.40016    0.00106     0.40122
 =======================================================================
   * Total *    0.00000     12.99548    32.84137    0.16314    46.00000

                                 Natural Population      
 --------------------------------------------------------
   Core                      12.99548 ( 99.9652% of  13)
   Valence                   32.84137 ( 99.5193% of  33)
   Natural Minimal Basis     45.83686 ( 99.6453% of  46)
   Natural Rydberg Basis      0.16314 (  0.3547% of  46)
 --------------------------------------------------------

    Atom  No          Natural Electron Configuration
 ----------------------------------------------------------------------------
      C    1      [core]2S( 0.56)2p( 1.78)
      C    2      [core]2S( 0.40)2p( 1.18)3d( 0.01)4p( 0.01)
      O    3      [core]2S( 0.85)2p( 2.44)
      O    4      [core]2S( 0.86)2p( 2.26)
      O    5      [core]2S( 0.84)2p( 2.27)
      C    6      [core]2S( 0.41)2p( 1.41)4p( 0.01)
      C    7      [core]2S( 0.41)2p( 1.51)
      N    8      [core]2S( 0.67)2p( 1.98)3p( 0.01)
      C    9      [core]2S( 0.46)2p( 1.54)4p( 0.01)
      C   10      [core]2S( 0.47)2p( 1.57)3p( 0.01)
      C   11      [core]2S( 0.47)2p( 1.63)4p( 0.01)
      C   12      [core]2S( 0.42)2p( 1.41)4S( 0.01)4p( 0.01)
      N   13      [core]2S( 0.79)2p( 1.87)3d( 0.01)
      H   14            1S( 0.39)
      H   15            1S( 0.39)
      H   16            1S( 0.37)
      H   17            1S( 0.42)
      H   18            1S( 0.41)
      H   19            1S( 0.40)


 NBO analysis skipped by request.
 1\1\GINC-NODE105\SP\UB3LYP\6-311++G(d,p)\C8H6N2O3(1-,2)\VSC10255\10-De
 c-2020\0\\# B3LYP/6-311++G(d,p) empiricaldispersion=gd3bj scf=xqc pop=
 npa geom=check\\CID_23088725_JID_3612_Energie_anion\\-1,2\C,0,1.195805
 206,-0.2471702125,0.0738467567\C,0,0.6107444822,-1.5598965818,-0.37530
 38239\O,0,0.5121885378,-2.5822231639,0.236863604\O,0,0.2079355751,-1.4
 019098427,-1.7016435432\O,0,-0.3517464675,-2.6467359025,-2.1997120554\
 C,0,0.3146639521,-3.0483905301,-3.3238021275\C,0,1.6919191186,-2.90957
 79212,-3.5863879564\N,0,2.2606263658,-3.400688443,-4.7024895784\C,0,1.
 4989122376,-4.05609048,-5.5730898048\C,0,0.1255495798,-4.2518394804,-5
 .3893946277\C,0,-0.475677817,-3.728758352,-4.2546018551\C,0,2.59926560
 71,-2.2479997672,-2.6861667115\N,0,3.3655824083,-1.7380619397,-1.97702
 40687\H,0,1.0966468337,-0.1761994252,1.1582184651\H,0,0.7114791619,0.6
 02442083,-0.4124915454\H,0,2.2575183352,-0.2467630279,-0.1950915658\H,
 0,2.0041388164,-4.4422344359,-6.4546037475\H,0,-0.4597251775,-4.787631
 4858,-6.129575587\H,0,-1.5383467556,-3.8300910913,-4.0626502275\\Versi
 on=ES64L-G16RevA.03\State=2-A\HF=-643.7659028\S2=0.759759\S2-1=0.\S2A=
 0.750074\RMSD=3.028e-09\Dipole=-1.6263275,0.7164259,0.2498476\Quadrupo
 le=-3.6417701,7.1219792,-3.4802091,-2.3061644,1.4867246,0.1962881\PG=C
 01 [X(C8H6N2O3)]\\@


 The number of Unix installations has grown to 10,
  with more expected.
                  -- The Unix Programmer's Manual,
                     2nd Edition, June, 1972.
 Job cpu time:       0 days  0 hours 17 minutes 43.9 seconds.
 Elapsed time:       0 days  0 hours  4 minutes 27.4 seconds.
 File lengths (MBytes):  RWF=    160 Int=      0 D2E=      0 Chk=     16 Scr=      8
 Normal termination of Gaussian 16 at Thu Dec 10 00:04:18 2020.
