 Entering Gaussian System, Link 0=g16
 Initial command:
 /apps/brussel/CO7/ivybridge-ib/software/Gaussian/G16.A.03-intel-2017b/g16/l1.exe "/scratch/brussel/102/vsc10255/3543015[1155].master01.hydra.brussel.vsc/Gau-26160.inp" -scrdir="/scratch/brussel/102/vsc10255/3543015[1155].master01.hydra.brussel.vsc/"
 Entering Link 1 = /apps/brussel/CO7/ivybridge-ib/software/Gaussian/G16.A.03-intel-2017b/g16/l1.exe.bin PID=     26161.
  
 Copyright (c) 1988,1990,1992,1993,1995,1998,2003,2009,2016,
            Gaussian, Inc.  All Rights Reserved.
  
 This is part of the Gaussian(R) 16 program.  It is based on
 the Gaussian(R) 09 system (copyright 2009, Gaussian, Inc.),
 the Gaussian(R) 03 system (copyright 2003, Gaussian, Inc.),
 the Gaussian(R) 98 system (copyright 1998, Gaussian, Inc.),
 the Gaussian(R) 94 system (copyright 1995, Gaussian, Inc.),
 the Gaussian 92(TM) system (copyright 1992, Gaussian, Inc.),
 the Gaussian 90(TM) system (copyright 1990, Gaussian, Inc.),
 the Gaussian 88(TM) system (copyright 1988, Gaussian, Inc.),
 the Gaussian 86(TM) system (copyright 1986, Carnegie Mellon
 University), and the Gaussian 82(TM) system (copyright 1983,
 Carnegie Mellon University). Gaussian is a federally registered
 trademark of Gaussian, Inc.
  
 This software contains proprietary and confidential information,
 including trade secrets, belonging to Gaussian, Inc.
  
 This software is provided under written license and may be
 used, copied, transmitted, or stored only in accord with that
 written license.
  
 The following legend is applicable only to US Government
 contracts under FAR:
  
                    RESTRICTED RIGHTS LEGEND
  
 Use, reproduction and disclosure by the US Government is
 subject to restrictions as set forth in subparagraphs (a)
 and (c) of the Commercial Computer Software - Restricted
 Rights clause in FAR 52.227-19.
  
 Gaussian, Inc.
 340 Quinnipiac St., Bldg. 40, Wallingford CT 06492
  
  
 ---------------------------------------------------------------
 Warning -- This program may not be used in any manner that
 competes with the business of Gaussian, Inc. or will provide
 assistance to any competitor of Gaussian, Inc.  The licensee
 of this program is prohibited from giving any competitor of
 Gaussian, Inc. access to this program.  By using this program,
 the user acknowledges that Gaussian, Inc. is engaged in the
 business of creating and licensing software in the field of
 computational chemistry and represents and warrants to the
 licensee that it is not a competitor of Gaussian, Inc. and that
 it will not use this program in any manner prohibited above.
 ---------------------------------------------------------------
  

 Cite this work as:
 Gaussian 16, Revision A.03,
 M. J. Frisch, G. W. Trucks, H. B. Schlegel, G. E. Scuseria, 
 M. A. Robb, J. R. Cheeseman, G. Scalmani, V. Barone, 
 G. A. Petersson, H. Nakatsuji, X. Li, M. Caricato, A. V. Marenich, 
 J. Bloino, B. G. Janesko, R. Gomperts, B. Mennucci, H. P. Hratchian, 
 J. V. Ortiz, A. F. Izmaylov, J. L. Sonnenberg, D. Williams-Young, 
 F. Ding, F. Lipparini, F. Egidi, J. Goings, B. Peng, A. Petrone, 
 T. Henderson, D. Ranasinghe, V. G. Zakrzewski, J. Gao, N. Rega, 
 G. Zheng, W. Liang, M. Hada, M. Ehara, K. Toyota, R. Fukuda, 
 J. Hasegawa, M. Ishida, T. Nakajima, Y. Honda, O. Kitao, H. Nakai, 
 T. Vreven, K. Throssell, J. A. Montgomery, Jr., J. E. Peralta, 
 F. Ogliaro, M. J. Bearpark, J. J. Heyd, E. N. Brothers, K. N. Kudin, 
 V. N. Staroverov, T. A. Keith, R. Kobayashi, J. Normand, 
 K. Raghavachari, A. P. Rendell, J. C. Burant, S. S. Iyengar, 
 J. Tomasi, M. Cossi, J. M. Millam, M. Klene, C. Adamo, R. Cammi, 
 J. W. Ochterski, R. L. Martin, K. Morokuma, O. Farkas, 
 J. B. Foresman, and D. J. Fox, Gaussian, Inc., Wallingford CT, 2016.
 
 ******************************************
 Gaussian 16:  ES64L-G16RevA.03 25-Dec-2016
                 8-Dec-2020 
 ******************************************
 %chk=JID_1155.chk
 %mem=8GB
 %nprocshared=4
 Will use up to    4 processors via shared memory.
 -----------------------------------------------------------
 # opt freq B3LYP/6-31G(d) empiricaldispersion=gd3bj scf=xqc
 -----------------------------------------------------------
 1/18=20,19=15,26=3,38=1/1,3;
 2/9=110,12=2,17=6,18=5,40=1/2;
 3/5=1,6=6,7=1,11=2,25=1,30=1,71=1,74=-5,124=41/1,2,3;
 4//1;
 5/5=2,8=3,13=1,38=5/2,8;
 6/7=2,8=2,9=2,10=2,28=1/1;
 7//1,2,3,16;
 1/18=20,19=15,26=3/3(2);
 2/9=110/2;
 99//99;
 2/9=110/2;
 3/5=1,6=6,7=1,11=2,25=1,30=1,71=1,74=-5,124=41/1,2,3;
 4/5=5,16=3,69=1/1;
 5/5=2,8=3,13=1,38=5/2,8;
 7//1,2,3,16;
 1/18=20,19=15,26=3/3(-5);
 2/9=110/2;
 6/7=2,8=2,9=2,10=2,19=2,28=1/1;
 99/9=1/99;
 -------------------------------
 CID_148889499_JID_1155_neutraal
 -------------------------------
 Symbolic Z-matrix:
 Charge =  0 Multiplicity = 1
 C                     1.05135  -0.06086   0.06049 
 C                     0.04355  -1.14989  -0.29232 
 S                    -0.14924  -2.31689   1.08645 
 S                    -1.55183  -0.46604  -0.8816 
 S                    -2.22554   0.75058   0.64023 
 C                    -3.75188   0.00259   1.18244 
 C                    -3.85345  -1.3382    1.53439 
 C                    -5.0833   -1.83647   1.96205 
 C                    -6.17612  -0.98383   2.03239 
 C                    -5.99059   0.33873   1.67355 
 N                    -4.8102    0.84651   1.25775 
 H                     0.76178   0.51605   0.94526 
 H                     1.18134   0.63879  -0.77313 
 H                     2.03698  -0.49666   0.26309 
 H                     0.44657  -1.7266   -1.13118 
 H                     1.13768  -2.68699   1.15101 
 H                    -3.00011  -2.00121   1.48577 
 H                    -5.18206  -2.88243   2.2383 
 H                    -7.14634  -1.33931   2.36013 
 H                    -6.81067   1.05007   1.71209 
 

 GradGradGradGradGradGradGradGradGradGradGradGradGradGradGradGradGradGrad
 Berny optimization.
 Initialization pass.
                           ----------------------------
                           !    Initial Parameters    !
                           ! (Angstroms and Degrees)  !
 --------------------------                            --------------------------
 ! Name  Definition              Value          Derivative Info.                !
 --------------------------------------------------------------------------------
 ! R1    R(1,2)                  1.5252         estimate D2E/DX2                !
 ! R2    R(1,12)                 1.0952         estimate D2E/DX2                !
 ! R3    R(1,13)                 1.0961         estimate D2E/DX2                !
 ! R4    R(1,14)                 1.0966         estimate D2E/DX2                !
 ! R5    R(2,3)                  1.8166         estimate D2E/DX2                !
 ! R6    R(2,4)                  1.8331         estimate D2E/DX2                !
 ! R7    R(2,15)                 1.0949         estimate D2E/DX2                !
 ! R8    R(3,16)                 1.3406         estimate D2E/DX2                !
 ! R9    R(4,5)                  2.0616         estimate D2E/DX2                !
 ! R10   R(5,6)                  1.7842         estimate D2E/DX2                !
 ! R11   R(6,7)                  1.3899         estimate D2E/DX2                !
 ! R12   R(6,11)                 1.3557         estimate D2E/DX2                !
 ! R13   R(7,8)                  1.3942         estimate D2E/DX2                !
 ! R14   R(7,17)                 1.0817         estimate D2E/DX2                !
 ! R15   R(8,9)                  1.3879         estimate D2E/DX2                !
 ! R16   R(8,18)                 1.0863         estimate D2E/DX2                !
 ! R17   R(9,10)                 1.3829         estimate D2E/DX2                !
 ! R18   R(9,19)                 1.084          estimate D2E/DX2                !
 ! R19   R(10,11)                1.3506         estimate D2E/DX2                !
 ! R20   R(10,20)                1.0863         estimate D2E/DX2                !
 ! A1    A(2,1,12)             112.8484         estimate D2E/DX2                !
 ! A2    A(2,1,13)             110.9914         estimate D2E/DX2                !
 ! A3    A(2,1,14)             110.6647         estimate D2E/DX2                !
 ! A4    A(12,1,13)            108.0311         estimate D2E/DX2                !
 ! A5    A(12,1,14)            107.3218         estimate D2E/DX2                !
 ! A6    A(13,1,14)            106.7151         estimate D2E/DX2                !
 ! A7    A(1,2,3)              110.6868         estimate D2E/DX2                !
 ! A8    A(1,2,4)              112.5248         estimate D2E/DX2                !
 ! A9    A(1,2,15)             108.0665         estimate D2E/DX2                !
 ! A10   A(3,2,4)              113.0344         estimate D2E/DX2                !
 ! A11   A(3,2,15)             106.3915         estimate D2E/DX2                !
 ! A12   A(4,2,15)             105.6985         estimate D2E/DX2                !
 ! A13   A(2,3,16)              96.4318         estimate D2E/DX2                !
 ! A14   A(2,4,5)              105.5022         estimate D2E/DX2                !
 ! A15   A(4,5,6)              104.8625         estimate D2E/DX2                !
 ! A16   A(5,6,7)              122.9488         estimate D2E/DX2                !
 ! A17   A(5,6,11)             115.0714         estimate D2E/DX2                !
 ! A18   A(7,6,11)             121.9635         estimate D2E/DX2                !
 ! A19   A(6,7,8)              119.1369         estimate D2E/DX2                !
 ! A20   A(6,7,17)             121.4813         estimate D2E/DX2                !
 ! A21   A(8,7,17)             119.3817         estimate D2E/DX2                !
 ! A22   A(7,8,9)              119.3789         estimate D2E/DX2                !
 ! A23   A(7,8,18)             120.1536         estimate D2E/DX2                !
 ! A24   A(9,8,18)             120.4675         estimate D2E/DX2                !
 ! A25   A(8,9,10)             117.9539         estimate D2E/DX2                !
 ! A26   A(8,9,19)             121.2386         estimate D2E/DX2                !
 ! A27   A(10,9,19)            120.8074         estimate D2E/DX2                !
 ! A28   A(9,10,11)            123.8292         estimate D2E/DX2                !
 ! A29   A(9,10,20)            121.0498         estimate D2E/DX2                !
 ! A30   A(11,10,20)           115.121          estimate D2E/DX2                !
 ! A31   A(6,11,10)            117.7321         estimate D2E/DX2                !
 ! D1    D(12,1,2,3)           -59.313          estimate D2E/DX2                !
 ! D2    D(12,1,2,4)            68.2325         estimate D2E/DX2                !
 ! D3    D(12,1,2,15)         -175.4468         estimate D2E/DX2                !
 ! D4    D(13,1,2,3)           179.2583         estimate D2E/DX2                !
 ! D5    D(13,1,2,4)           -53.1961         estimate D2E/DX2                !
 ! D6    D(13,1,2,15)           63.1246         estimate D2E/DX2                !
 ! D7    D(14,1,2,3)            60.9669         estimate D2E/DX2                !
 ! D8    D(14,1,2,4)          -171.4875         estimate D2E/DX2                !
 ! D9    D(14,1,2,15)          -55.1668         estimate D2E/DX2                !
 ! D10   D(1,2,3,16)           -58.3435         estimate D2E/DX2                !
 ! D11   D(4,2,3,16)           174.3908         estimate D2E/DX2                !
 ! D12   D(15,2,3,16)           58.8252         estimate D2E/DX2                !
 ! D13   D(1,2,4,5)            -57.4737         estimate D2E/DX2                !
 ! D14   D(3,2,4,5)             68.8181         estimate D2E/DX2                !
 ! D15   D(15,2,4,5)          -175.2035         estimate D2E/DX2                !
 ! D16   D(2,4,5,6)           -116.9361         estimate D2E/DX2                !
 ! D17   D(4,5,6,7)             52.1222         estimate D2E/DX2                !
 ! D18   D(4,5,6,11)          -129.324          estimate D2E/DX2                !
 ! D19   D(5,6,7,8)            179.2727         estimate D2E/DX2                !
 ! D20   D(5,6,7,17)            -0.5891         estimate D2E/DX2                !
 ! D21   D(11,6,7,8)             0.8168         estimate D2E/DX2                !
 ! D22   D(11,6,7,17)         -179.045          estimate D2E/DX2                !
 ! D23   D(5,6,11,10)         -179.4505         estimate D2E/DX2                !
 ! D24   D(7,6,11,10)           -0.881          estimate D2E/DX2                !
 ! D25   D(6,7,8,9)             -0.2651         estimate D2E/DX2                !
 ! D26   D(6,7,8,18)           179.8174         estimate D2E/DX2                !
 ! D27   D(17,7,8,9)           179.5996         estimate D2E/DX2                !
 ! D28   D(17,7,8,18)           -0.3179         estimate D2E/DX2                !
 ! D29   D(7,8,9,10)            -0.1715         estimate D2E/DX2                !
 ! D30   D(7,8,9,19)           179.9621         estimate D2E/DX2                !
 ! D31   D(18,8,9,10)          179.7457         estimate D2E/DX2                !
 ! D32   D(18,8,9,19)           -0.1207         estimate D2E/DX2                !
 ! D33   D(8,9,10,11)            0.0987         estimate D2E/DX2                !
 ! D34   D(8,9,10,20)         -179.8452         estimate D2E/DX2                !
 ! D35   D(19,9,10,11)         179.9657         estimate D2E/DX2                !
 ! D36   D(19,9,10,20)           0.0218         estimate D2E/DX2                !
 ! D37   D(9,10,11,6)            0.421          estimate D2E/DX2                !
 ! D38   D(20,10,11,6)        -179.6321         estimate D2E/DX2                !
 --------------------------------------------------------------------------------
 Trust Radius=3.00D-01 FncErr=1.00D-07 GrdErr=1.00D-06 EigMax=2.50D+02 EigMin=1.00D-04
 Number of steps in this run=     99 maximum allowed number of steps=    120.
 GradGradGradGradGradGradGradGradGradGradGradGradGradGradGradGradGradGrad

                          Input orientation:                          
 ---------------------------------------------------------------------
 Center     Atomic      Atomic             Coordinates (Angstroms)
 Number     Number       Type             X           Y           Z
 ---------------------------------------------------------------------
      1          6           0        1.051350   -0.060860    0.060490
      2          6           0        0.043550   -1.149890   -0.292320
      3         16           0       -0.149240   -2.316890    1.086450
      4         16           0       -1.551830   -0.466040   -0.881600
      5         16           0       -2.225540    0.750580    0.640230
      6          6           0       -3.751880    0.002590    1.182440
      7          6           0       -3.853450   -1.338200    1.534390
      8          6           0       -5.083300   -1.836470    1.962050
      9          6           0       -6.176120   -0.983830    2.032390
     10          6           0       -5.990590    0.338730    1.673550
     11          7           0       -4.810200    0.846510    1.257750
     12          1           0        0.761780    0.516050    0.945260
     13          1           0        1.181340    0.638790   -0.773130
     14          1           0        2.036980   -0.496660    0.263090
     15          1           0        0.446570   -1.726600   -1.131180
     16          1           0        1.137680   -2.686990    1.151010
     17          1           0       -3.000110   -2.001210    1.485770
     18          1           0       -5.182060   -2.882430    2.238300
     19          1           0       -7.146340   -1.339310    2.360130
     20          1           0       -6.810670    1.050070    1.712090
 ---------------------------------------------------------------------
                    Distance matrix (angstroms):
                    1          2          3          4          5
     1  C    0.000000
     2  C    1.525163   0.000000
     3  S    2.753849   1.816608   0.000000
     4  S    2.797901   1.833068   3.044031   0.000000
     5  S    3.425280   3.103257   3.730885   2.061557   0.000000
     6  C    4.932932   4.231834   4.285816   3.052883   1.784151
     7  C    5.278356   4.308009   3.857416   3.448931   2.795106
     8  C    6.663531   5.642532   5.034126   4.736634   4.075148
     9  C    7.548284   6.641999   6.244608   5.490310   4.533582
    10  C    7.235368   6.518549   6.443475   5.184500   3.925936
    11  N    6.050993   5.472405   5.635689   4.112977   2.659135
    12  H    1.095214   2.196091   2.979168   3.107203   3.011997
    13  H    1.096052   2.173734   3.736914   2.950023   3.690110
    14  H    1.096556   2.170012   2.961540   3.767069   4.457232
    15  H    2.135539   1.094854   2.370931   2.375901   4.051479
    16  H    2.844863   2.375500   1.340636   4.037027   4.836221
    17  H    4.712824   3.626323   2.895958   3.171546   2.981148
    18  H    7.180495   6.059103   5.193830   5.362023   4.949101
    19  H    8.609582   7.665891   7.178951   6.524566   5.616046
    20  H    8.110074   7.472470   7.490160   6.056502   4.718262
                    6          7          8          9         10
     6  C    0.000000
     7  C    1.389929   0.000000
     8  C    2.400544   1.394165   0.000000
     9  C    2.751796   2.401745   1.387875   0.000000
    10  C    2.316463   2.720079   2.374427   1.382878   0.000000
    11  N    1.355697   2.401012   2.787293   2.411628   1.350574
    12  H    4.548958   5.008559   6.382254   7.180943   6.793846
    13  H    5.344686   5.880667   7.270064   8.039655   7.583723
    14  H    5.882632   6.084534   7.441770   8.415626   8.193238
    15  H    5.096069   5.074080   6.337161   7.376985   7.319093
    16  H    5.580558   5.184360   6.331016   7.561035   7.761460
    17  H    2.161569   1.081728   2.143283   3.379481   3.801783
    18  H    3.388745   2.155305   1.086324   2.152960   3.368759
    19  H    3.835363   3.394845   2.159113   1.084023   2.150109
    20  H    3.276269   3.805333   3.373188   2.154529   1.086288
                   11         12         13         14         15
    11  N    0.000000
    12  H    5.590511   0.000000
    13  H    6.329785   1.773122   0.000000
    14  H    7.048215   1.765523   1.759295   0.000000
    15  H    6.321512   3.072530   2.502630   2.446660   0.000000
    16  H    6.919125   3.231578   3.842530   2.528772   2.570676
    17  H    3.382001   4.558571   5.436612   5.397304   4.336293
    18  H    3.873597   6.967844   7.871503   7.855437   6.661142
    19  H    3.383874   8.245155   9.114848   9.457325   8.366094
    20  H    2.061490   7.629889   8.379600   9.097960   8.274153
                   16         17         18         19         20
    16  H    0.000000
    17  H    4.207572   0.000000
    18  H    6.415568   2.470578   0.000000
    19  H    8.479575   4.288804   2.500891   0.000000
    20  H    8.800949   4.886911   4.288802   2.498353   0.000000
 Stoichiometry    C7H9NS3
 Framework group  C1[X(C7H9NS3)]
 Deg. of freedom    54
 Full point group                 C1      NOp   1
 Largest Abelian subgroup         C1      NOp   1
 Largest concise Abelian subgroup C1      NOp   1
                         Standard orientation:                         
 ---------------------------------------------------------------------
 Center     Atomic      Atomic             Coordinates (Angstroms)
 Number     Number       Type             X           Y           Z
 ---------------------------------------------------------------------
      1          6           0        3.432586   -0.774261   -0.630777
      2          6           0        2.689394    0.073390    0.396489
      3         16           0        2.267035    1.698362   -0.297154
      4         16           0        1.244655   -0.798120    1.112966
      5         16           0        0.050153   -1.296144   -0.491762
      6          6           0       -1.469479   -0.399665   -0.226737
      7          6           0       -1.507568    0.968157    0.017220
      8          6           0       -2.741516    1.591305    0.198204
      9          6           0       -3.903189    0.835367    0.125585
     10          6           0       -3.780880   -0.518194   -0.129885
     11          7           0       -2.598509   -1.145455   -0.310421
     12          1           0        2.850723   -0.944121   -1.542959
     13          1           0        3.701467   -1.751254   -0.213023
     14          1           0        4.370251   -0.289149   -0.927232
     15          1           0        3.367305    0.262215    1.235230
     16          1           0        3.522446    2.068845   -0.586965
     17          1           0       -0.602485    1.558452    0.067336
     18          1           0       -2.790352    2.658947    0.392765
     19          1           0       -4.878360    1.288685    0.262153
     20          1           0       -4.656996   -1.156598   -0.199750
 ---------------------------------------------------------------------
 Rotational constants (GHZ):           1.5178283           0.4146788           0.3554773
 Standard basis: 6-31G(d) (6D, 7F)
 There are   195 symmetry adapted cartesian basis functions of A   symmetry.
 There are   195 symmetry adapted basis functions of A   symmetry.
   195 basis functions,   416 primitive gaussians,   195 cartesian basis functions
    53 alpha electrons       53 beta electrons
       nuclear repulsion energy       869.9453629606 Hartrees.
 NAtoms=   20 NActive=   20 NUniq=   20 SFac= 1.00D+00 NAtFMM=   60 NAOKFM=F Big=F
 Integral buffers will be    131072 words long.
 Raffenetti 2 integral format.
 Two-electron integral symmetry is turned on.
 Nuclear repulsion after empirical dispersion term =      869.8976693258 Hartrees.
 One-electron integrals computed using PRISM.
 NBasis=   195 RedAO= T EigKep=  8.30D-04  NBF=   195
 NBsUse=   195 1.00D-06 EigRej= -1.00D+00 NBFU=   195
 ExpMin= 1.17D-01 ExpMax= 2.19D+04 ExpMxC= 3.30D+03 IAcc=3 IRadAn=         5 AccDes= 0.00D+00
 Harris functional with IExCor=  402 and IRadAn=       5 diagonalized for initial guess.
 HarFok:  IExCor=  402 AccDes= 0.00D+00 IRadAn=         5 IDoV= 1 UseB2=F ITyADJ=14
 ICtDFT=  3500011 ScaDFX=  1.000000  1.000000  1.000000  1.000000
 FoFCou: FMM=F IPFlag=           0 FMFlag=      100000 FMFlg1=           0
         NFxFlg=           0 DoJE=T BraDBF=F KetDBF=T FulRan=T
         wScrn=  0.000000 ICntrl=       500 IOpCl=  0 I1Cent=   200000004 NGrid=           0
         NMat0=    1 NMatS0=      1 NMatT0=    0 NMatD0=    1 NMtDS0=    0 NMtDT0=    0
 Petite list used in FoFCou.
 Keep R1 ints in memory in canonical form, NReq=186691277.
 Requested convergence on RMS density matrix=1.00D-08 within  32 cycles.
 Requested convergence on MAX density matrix=1.00D-06.
 Requested convergence on             energy=1.00D-06.
 No special actions if energy rises.
 Integral accuracy reduced to 1.0D-05 until final iterations.
 Initial convergence to 1.0D-05 achieved.  Increase integral accuracy.
 SCF Done:  E(RB3LYP) =  -1521.51444351     A.U. after   15 cycles
            NFock= 15  Conv=0.68D-08     -V/T= 2.0046
 QCSCF skips out because SCF is already converged.

 **********************************************************************

            Population analysis using the SCF density.

 **********************************************************************

 Orbital symmetries:
       Occupied  (A) (A) (A) (A) (A) (A) (A) (A) (A) (A) (A) (A)
                 (A) (A) (A) (A) (A) (A) (A) (A) (A) (A) (A) (A)
                 (A) (A) (A) (A) (A) (A) (A) (A) (A) (A) (A) (A)
                 (A) (A) (A) (A) (A) (A) (A) (A) (A) (A) (A) (A)
                 (A) (A) (A) (A) (A)
       Virtual   (A) (A) (A) (A) (A) (A) (A) (A) (A) (A) (A) (A)
                 (A) (A) (A) (A) (A) (A) (A) (A) (A) (A) (A) (A)
                 (A) (A) (A) (A) (A) (A) (A) (A) (A) (A) (A) (A)
                 (A) (A) (A) (A) (A) (A) (A) (A) (A) (A) (A) (A)
                 (A) (A) (A) (A) (A) (A) (A) (A) (A) (A) (A) (A)
                 (A) (A) (A) (A) (A) (A) (A) (A) (A) (A) (A) (A)
                 (A) (A) (A) (A) (A) (A) (A) (A) (A) (A) (A) (A)
                 (A) (A) (A) (A) (A) (A) (A) (A) (A) (A) (A) (A)
                 (A) (A) (A) (A) (A) (A) (A) (A) (A) (A) (A) (A)
                 (A) (A) (A) (A) (A) (A) (A) (A) (A) (A) (A) (A)
                 (A) (A) (A) (A) (A) (A) (A) (A) (A) (A) (A) (A)
                 (A) (A) (A) (A) (A) (A) (A) (A) (A) (A)
 The electronic state is 1-A.
 Alpha  occ. eigenvalues --  -88.90495 -88.90145 -88.88307 -14.34040 -10.26317
 Alpha  occ. eigenvalues --  -10.25744 -10.23007 -10.21464 -10.20601 -10.20421
 Alpha  occ. eigenvalues --  -10.19573  -7.96667  -7.96343  -7.94683  -5.93220
 Alpha  occ. eigenvalues --   -5.92905  -5.92797  -5.92438  -5.92049  -5.91752
 Alpha  occ. eigenvalues --   -5.91199  -5.90820  -5.90090  -0.94731  -0.85185
 Alpha  occ. eigenvalues --   -0.81059  -0.80477  -0.75599  -0.71688  -0.68427
 Alpha  occ. eigenvalues --   -0.63795  -0.61882  -0.57725  -0.52036  -0.49033
 Alpha  occ. eigenvalues --   -0.48312  -0.46680  -0.44663  -0.44149  -0.42113
 Alpha  occ. eigenvalues --   -0.41133  -0.40735  -0.39485  -0.37554  -0.36322
 Alpha  occ. eigenvalues --   -0.34119  -0.32687  -0.29726  -0.28345  -0.27127
 Alpha  occ. eigenvalues --   -0.25674  -0.24785  -0.22652
 Alpha virt. eigenvalues --   -0.04808  -0.02914   0.00231   0.01444   0.02334
 Alpha virt. eigenvalues --    0.05087   0.06936   0.10188   0.10543   0.13062
 Alpha virt. eigenvalues --    0.14212   0.14639   0.16210   0.17058   0.17137
 Alpha virt. eigenvalues --    0.18656   0.20135   0.23152   0.26844   0.27731
 Alpha virt. eigenvalues --    0.30115   0.32468   0.32912   0.33390   0.34653
 Alpha virt. eigenvalues --    0.35930   0.37328   0.38566   0.40913   0.41297
 Alpha virt. eigenvalues --    0.42147   0.44762   0.46111   0.47438   0.49081
 Alpha virt. eigenvalues --    0.51818   0.52539   0.54517   0.55033   0.58143
 Alpha virt. eigenvalues --    0.58680   0.58767   0.59252   0.59552   0.60288
 Alpha virt. eigenvalues --    0.60998   0.61703   0.64069   0.64959   0.66182
 Alpha virt. eigenvalues --    0.68707   0.70299   0.72966   0.75300   0.76966
 Alpha virt. eigenvalues --    0.77689   0.80800   0.81736   0.82958   0.83814
 Alpha virt. eigenvalues --    0.84390   0.85062   0.86484   0.87702   0.88580
 Alpha virt. eigenvalues --    0.88895   0.90368   0.92212   0.92534   0.93820
 Alpha virt. eigenvalues --    0.94501   0.94973   0.97007   0.98153   0.98585
 Alpha virt. eigenvalues --    1.01234   1.02471   1.04814   1.07295   1.09252
 Alpha virt. eigenvalues --    1.11098   1.13022   1.17713   1.20109   1.21796
 Alpha virt. eigenvalues --    1.24160   1.26409   1.28774   1.39973   1.42642
 Alpha virt. eigenvalues --    1.46895   1.47736   1.49630   1.51220   1.51283
 Alpha virt. eigenvalues --    1.55290   1.56213   1.60393   1.70601   1.78081
 Alpha virt. eigenvalues --    1.81072   1.83187   1.89778   1.90778   1.95413
 Alpha virt. eigenvalues --    1.96791   1.98651   2.06638   2.13082   2.13217
 Alpha virt. eigenvalues --    2.14957   2.16856   2.17516   2.18787   2.21859
 Alpha virt. eigenvalues --    2.28960   2.30857   2.31172   2.31216   2.36186
 Alpha virt. eigenvalues --    2.51757   2.55320   2.57780   2.65246   2.67313
 Alpha virt. eigenvalues --    2.67590   2.70161   2.76328   2.78718   3.04942
 Alpha virt. eigenvalues --    3.35033   3.81884   3.90564   3.96489   4.03683
 Alpha virt. eigenvalues --    4.10671   4.13104   4.15869   4.24519   4.31931
 Alpha virt. eigenvalues --    4.36568   4.58108
          Condensed to atoms (all electrons):
               1          2          3          4          5          6
     1  C    5.184640   0.335992  -0.071654  -0.057879  -0.008454  -0.000007
     2  C    0.335992   5.396292   0.232100   0.211663  -0.031012  -0.000223
     3  S   -0.071654   0.232100  15.735845  -0.053879   0.005679  -0.000313
     4  S   -0.057879   0.211663  -0.053879  15.792344   0.118291  -0.028246
     5  S   -0.008454  -0.031012   0.005679   0.118291  15.695266   0.252818
     6  C   -0.000007  -0.000223  -0.000313  -0.028246   0.252818   5.001819
     7  C   -0.000009   0.000144  -0.002450  -0.003131  -0.073944   0.482299
     8  C   -0.000000  -0.000004   0.000112  -0.000277   0.005045  -0.024750
     9  C    0.000000   0.000000  -0.000003   0.000004   0.000555  -0.040720
    10  C    0.000000   0.000001  -0.000001  -0.000167   0.004632  -0.064453
    11  N   -0.000001  -0.000014   0.000006   0.001196  -0.052114   0.392497
    12  H    0.383689  -0.036704   0.001360  -0.008134   0.009020  -0.000063
    13  H    0.360591  -0.030472   0.006881  -0.000287  -0.000391   0.000003
    14  H    0.365352  -0.030490  -0.004678   0.006404   0.000056   0.000001
    15  H   -0.044987   0.358513  -0.048762  -0.029891   0.003643  -0.000020
    16  H   -0.003100  -0.011777   0.239263   0.003581  -0.000187  -0.000001
    17  H    0.000043  -0.000542   0.008272   0.000851  -0.004636  -0.041948
    18  H    0.000000   0.000000   0.000009   0.000045  -0.000200   0.005189
    19  H    0.000000   0.000000  -0.000000  -0.000001   0.000021   0.000236
    20  H   -0.000000  -0.000000   0.000000   0.000002  -0.000363   0.006068
               7          8          9         10         11         12
     1  C   -0.000009  -0.000000   0.000000   0.000000  -0.000001   0.383689
     2  C    0.000144  -0.000004   0.000000   0.000001  -0.000014  -0.036704
     3  S   -0.002450   0.000112  -0.000003  -0.000001   0.000006   0.001360
     4  S   -0.003131  -0.000277   0.000004  -0.000167   0.001196  -0.008134
     5  S   -0.073944   0.005045   0.000555   0.004632  -0.052114   0.009020
     6  C    0.482299  -0.024750  -0.040720  -0.064453   0.392497  -0.000063
     7  C    4.979341   0.524097  -0.028346  -0.039302  -0.028379   0.000002
     8  C    0.524097   4.850654   0.539146  -0.031431  -0.046571   0.000000
     9  C   -0.028346   0.539146   4.945682   0.496816  -0.025305   0.000000
    10  C   -0.039302  -0.031431   0.496816   4.776421   0.469446  -0.000000
    11  N   -0.028379  -0.046571  -0.025305   0.469446   6.758018   0.000001
    12  H    0.000002   0.000000   0.000000  -0.000000   0.000001   0.508134
    13  H    0.000001   0.000000  -0.000000   0.000000  -0.000000  -0.026140
    14  H    0.000000  -0.000000   0.000000  -0.000000  -0.000000  -0.028800
    15  H   -0.000009   0.000000  -0.000000  -0.000000   0.000000   0.004556
    16  H    0.000027  -0.000000   0.000000  -0.000000   0.000000  -0.000637
    17  H    0.352523  -0.041882   0.005411   0.000388   0.004509   0.000001
    18  H   -0.043246   0.364971  -0.045276   0.004999  -0.000069   0.000000
    19  H    0.005895  -0.043766   0.352546  -0.036247   0.004683  -0.000000
    20  H    0.000657   0.003668  -0.066585   0.378649  -0.054140  -0.000000
              13         14         15         16         17         18
     1  C    0.360591   0.365352  -0.044987  -0.003100   0.000043   0.000000
     2  C   -0.030472  -0.030490   0.358513  -0.011777  -0.000542   0.000000
     3  S    0.006881  -0.004678  -0.048762   0.239263   0.008272   0.000009
     4  S   -0.000287   0.006404  -0.029891   0.003581   0.000851   0.000045
     5  S   -0.000391   0.000056   0.003643  -0.000187  -0.004636  -0.000200
     6  C    0.000003   0.000001  -0.000020  -0.000001  -0.041948   0.005189
     7  C    0.000001   0.000000  -0.000009   0.000027   0.352523  -0.043246
     8  C    0.000000  -0.000000   0.000000  -0.000000  -0.041882   0.364971
     9  C   -0.000000   0.000000  -0.000000   0.000000   0.005411  -0.045276
    10  C    0.000000  -0.000000  -0.000000  -0.000000   0.000388   0.004999
    11  N   -0.000000  -0.000000   0.000000   0.000000   0.004509  -0.000069
    12  H   -0.026140  -0.028800   0.004556  -0.000637   0.000001   0.000000
    13  H    0.551985  -0.031075  -0.001210   0.000056  -0.000001   0.000000
    14  H   -0.031075   0.573624  -0.004384   0.002758  -0.000000  -0.000000
    15  H   -0.001210  -0.004384   0.554771  -0.004374   0.000002  -0.000000
    16  H    0.000056   0.002758  -0.004374   0.682558  -0.000015  -0.000000
    17  H   -0.000001  -0.000000   0.000002  -0.000015   0.542766  -0.005918
    18  H    0.000000  -0.000000  -0.000000  -0.000000  -0.005918   0.574232
    19  H   -0.000000  -0.000000  -0.000000  -0.000000  -0.000100  -0.005695
    20  H    0.000000  -0.000000   0.000000   0.000000   0.000026  -0.000183
              19         20
     1  C    0.000000  -0.000000
     2  C    0.000000  -0.000000
     3  S   -0.000000   0.000000
     4  S   -0.000001   0.000002
     5  S    0.000021  -0.000363
     6  C    0.000236   0.006068
     7  C    0.005895   0.000657
     8  C   -0.043766   0.003668
     9  C    0.352546  -0.066585
    10  C   -0.036247   0.378649
    11  N    0.004683  -0.054140
    12  H   -0.000000  -0.000000
    13  H   -0.000000   0.000000
    14  H   -0.000000  -0.000000
    15  H   -0.000000   0.000000
    16  H   -0.000000   0.000000
    17  H   -0.000100   0.000026
    18  H   -0.005695  -0.000183
    19  H    0.580706  -0.002133
    20  H   -0.002133   0.584116
 Mulliken charges:
               1
     1  C   -0.444214
     2  C   -0.393466
     3  S   -0.047784
     4  S    0.047512
     5  S    0.076276
     6  C    0.059816
     7  C   -0.126168
     8  C   -0.099012
     9  C   -0.133924
    10  C    0.040250
    11  N   -0.423765
    12  H    0.193716
    13  H    0.170062
    14  H    0.151233
    15  H    0.212152
    16  H    0.091850
    17  H    0.180252
    18  H    0.151141
    19  H    0.143854
    20  H    0.150219
 Sum of Mulliken charges =  -0.00000
 Mulliken charges with hydrogens summed into heavy atoms:
               1
     1  C    0.070796
     2  C   -0.181314
     3  S    0.044067
     4  S    0.047512
     5  S    0.076276
     6  C    0.059816
     7  C    0.054084
     8  C    0.052129
     9  C    0.009930
    10  C    0.190469
    11  N   -0.423765
 Electronic spatial extent (au):  <R**2>=           3092.6064
 Charge=              0.0000 electrons
 Dipole moment (field-independent basis, Debye):
    X=              0.9977    Y=              2.4185    Z=              0.2295  Tot=              2.6263
 Quadrupole moment (field-independent basis, Debye-Ang):
   XX=            -64.3387   YY=            -89.1493   ZZ=            -89.8203
   XY=             -4.6465   XZ=             -1.4700   YZ=              0.2753
 Traceless Quadrupole moment (field-independent basis, Debye-Ang):
   XX=             16.7641   YY=             -8.0465   ZZ=             -8.7176
   XY=             -4.6465   XZ=             -1.4700   YZ=              0.2753
 Octapole moment (field-independent basis, Debye-Ang**2):
  XXX=              1.3432  YYY=             16.9524  ZZZ=              0.0887  XYY=              0.7211
  XXY=             21.0227  XXZ=              3.0086  XZZ=              6.5286  YZZ=             -2.2711
  YYZ=             -1.8306  XYZ=             -1.9256
 Hexadecapole moment (field-independent basis, Debye-Ang**3):
 XXXX=          -2691.5609 YYYY=           -794.4437 ZZZZ=           -272.2604 XXXY=             15.9338
 XXXZ=            -15.6865 YYYX=            -23.1963 YYYZ=             -7.0418 ZZZX=              6.9641
 ZZZY=              3.5370 XXYY=           -623.0756 XXZZ=           -587.1710 YYZZ=           -183.7651
 XXYZ=             -0.3394 YYXZ=            -22.6014 ZZXY=              5.3102
 N-N= 8.698976693258D+02 E-N=-5.335938669106D+03  KE= 1.514586497645D+03
 Calling FoFJK, ICntrl=      2127 FMM=F ISym2X=0 I1Cent= 0 IOpClX= 0 NMat=1 NMatS=1 NMatT=0.
 ***** Axes restored to original set *****
 -------------------------------------------------------------------
 Center     Atomic                   Forces (Hartrees/Bohr)
 Number     Number              X              Y              Z
 -------------------------------------------------------------------
      1        6           0.006669139    0.007410173   -0.001746145
      2        6           0.013536996    0.007166820    0.001981748
      3       16          -0.013616183   -0.009044640    0.010455509
      4       16           0.000462842   -0.009030461   -0.010137711
      5       16           0.001688044    0.014997067    0.004344985
      6        6          -0.024228921    0.004166336    0.003921683
      7        6           0.000446988   -0.011129814    0.002579291
      8        6           0.004123292   -0.002502461   -0.001335915
      9        6          -0.003306231   -0.005095565    0.001661524
     10        6           0.013507562    0.013770927   -0.003880546
     11        7           0.006684980   -0.009367052   -0.000989435
     12        1          -0.003029506   -0.002591914   -0.000787992
     13        1          -0.001890467   -0.000598836   -0.000891854
     14        1          -0.000878660   -0.001875503    0.000936962
     15        1          -0.007636216    0.002691107   -0.005630590
     16        1           0.005461645   -0.000398401    0.000279633
     17        1           0.002855607    0.000460841   -0.000903625
     18        1           0.001009530    0.000019687    0.000065278
     19        1          -0.001190553    0.000119131   -0.000147879
     20        1          -0.000669887    0.000832559    0.000225078
 -------------------------------------------------------------------
 Cartesian Forces:  Max     0.024228921 RMS     0.006647102

 GradGradGradGradGradGradGradGradGradGradGradGradGradGradGradGradGradGrad
 Berny optimization.
 FormGI is forming the generalized inverse of G from B-inverse, IUseBI=4.
 Internal  Forces:  Max     0.017339744 RMS     0.004697912
 Search for a local minimum.
 Step number   1 out of a maximum of   99
 All quantities printed in internal units (Hartrees-Bohrs-Radians)
 Mixed Optimization -- RFO/linear search
 Second derivative matrix not updated -- first step.
 ITU=  0
     Eigenvalues ---    0.00230   0.00230   0.00433   0.00483   0.00580
     Eigenvalues ---    0.01887   0.02191   0.02208   0.02213   0.02259
     Eigenvalues ---    0.02281   0.02313   0.02325   0.04899   0.05330
     Eigenvalues ---    0.05617   0.05777   0.09004   0.16000   0.16000
     Eigenvalues ---    0.16000   0.16000   0.16000   0.16000   0.16000
     Eigenvalues ---    0.16000   0.19347   0.21128   0.22000   0.22418
     Eigenvalues ---    0.23676   0.24413   0.24851   0.24995   0.25000
     Eigenvalues ---    0.25000   0.26371   0.27406   0.28397   0.29875
     Eigenvalues ---    0.34066   0.34123   0.34217   0.34258   0.35241
     Eigenvalues ---    0.35245   0.35513   0.35786   0.43391   0.44646
     Eigenvalues ---    0.47273   0.48123   0.52417   0.53904
 RFO step:  Lambda=-1.52801632D-02 EMin= 2.30000000D-03
 Linear search not attempted -- first point.
 Iteration  1 RMS(Cart)=  0.21543276 RMS(Int)=  0.04608732
 Iteration  2 RMS(Cart)=  0.19473565 RMS(Int)=  0.02492022
 Iteration  3 RMS(Cart)=  0.20096019 RMS(Int)=  0.00657794
 Iteration  4 RMS(Cart)=  0.03453061 RMS(Int)=  0.00038114
 Iteration  5 RMS(Cart)=  0.00028213 RMS(Int)=  0.00035243
 Iteration  6 RMS(Cart)=  0.00000008 RMS(Int)=  0.00035243
 Variable       Old X    -DE/DX   Delta X   Delta X   Delta X     New X
                                 (Linear)    (Quad)   (Total)
    R1        2.88214   0.00167   0.00000   0.00532   0.00532   2.88746
    R2        2.06965  -0.00120   0.00000  -0.00336  -0.00336   2.06629
    R3        2.07124   0.00007   0.00000   0.00020   0.00020   2.07144
    R4        2.07219   0.00013   0.00000   0.00036   0.00036   2.07255
    R5        3.43289   0.01508   0.00000   0.05717   0.05717   3.49006
    R6        3.46400  -0.00075   0.00000  -0.00300  -0.00300   3.46100
    R7        2.06897   0.00009   0.00000   0.00024   0.00024   2.06921
    R8        2.53344   0.00537   0.00000   0.01923   0.01923   2.55267
    R9        3.89578   0.00749   0.00000   0.02504   0.02504   3.92081
   R10        3.37156   0.00468   0.00000   0.01616   0.01616   3.38772
   R11        2.62659   0.00725   0.00000   0.01436   0.01444   2.64103
   R12        2.56190  -0.01734   0.00000  -0.03287  -0.03284   2.52905
   R13        2.63459  -0.00335   0.00000  -0.00563  -0.00557   2.62902
   R14        2.04417   0.00201   0.00000   0.00539   0.00539   2.04956
   R15        2.62270   0.00558   0.00000   0.01307   0.01305   2.63575
   R16        2.05285  -0.00009   0.00000  -0.00026  -0.00026   2.05260
   R17        2.61326   0.01045   0.00000   0.02122   0.02114   2.63440
   R18        2.04851   0.00098   0.00000   0.00265   0.00265   2.05116
   R19        2.55222  -0.01213   0.00000  -0.02260  -0.02266   2.52955
   R20        2.05279   0.00106   0.00000   0.00288   0.00288   2.05567
    A1        1.96958  -0.00498   0.00000  -0.03235  -0.03257   1.93701
    A2        1.93717  -0.00137   0.00000  -0.00605  -0.00617   1.93100
    A3        1.93146  -0.00111   0.00000  -0.00424  -0.00433   1.92714
    A4        1.88550   0.00289   0.00000   0.01258   0.01234   1.89784
    A5        1.87312   0.00274   0.00000   0.01223   0.01203   1.88515
    A6        1.86253   0.00244   0.00000   0.02165   0.02167   1.88420
    A7        1.93185   0.00568   0.00000   0.03573   0.03507   1.96691
    A8        1.96393   0.00293   0.00000   0.00780   0.00830   1.97223
    A9        1.88612   0.00164   0.00000   0.03032   0.02929   1.91541
   A10        1.97282  -0.00745   0.00000  -0.04210  -0.04214   1.93068
   A11        1.85688   0.00175   0.00000   0.03018   0.02786   1.88474
   A12        1.84479  -0.00475   0.00000  -0.06177  -0.06165   1.78314
   A13        1.68305  -0.00182   0.00000  -0.01036  -0.01036   1.67269
   A14        1.84136  -0.01110   0.00000  -0.04185  -0.04185   1.79951
   A15        1.83020  -0.01180   0.00000  -0.04449  -0.04449   1.78570
   A16        2.14586  -0.00157   0.00000  -0.00446  -0.00457   2.14129
   A17        2.00837  -0.00828   0.00000  -0.02974  -0.02984   1.97853
   A18        2.12866   0.00983   0.00000   0.03370   0.03369   2.16236
   A19        2.07933  -0.00489   0.00000  -0.01799  -0.01787   2.06146
   A20        2.12025   0.00013   0.00000  -0.00421  -0.00427   2.11598
   A21        2.08360   0.00476   0.00000   0.02221   0.02214   2.10575
   A22        2.08355  -0.00388   0.00000  -0.00909  -0.00909   2.07446
   A23        2.09708   0.00096   0.00000  -0.00108  -0.00112   2.09596
   A24        2.10255   0.00293   0.00000   0.01015   0.01012   2.11268
   A25        2.05868  -0.00002   0.00000   0.00546   0.00533   2.06401
   A26        2.11601   0.00060   0.00000   0.00064   0.00070   2.11672
   A27        2.10849  -0.00058   0.00000  -0.00611  -0.00604   2.10244
   A28        2.16123   0.00023   0.00000   0.00004  -0.00016   2.16106
   A29        2.11272   0.00001   0.00000   0.00068   0.00073   2.11345
   A30        2.00924  -0.00024   0.00000  -0.00071  -0.00067   2.00857
   A31        2.05481  -0.00126   0.00000  -0.01209  -0.01219   2.04263
    D1       -1.03521   0.00287   0.00000   0.02194   0.02224  -1.01297
    D2        1.19088  -0.00019   0.00000   0.00065   0.00075   1.19164
    D3       -3.06212  -0.00331   0.00000  -0.05153  -0.05190  -3.11402
    D4        3.12865   0.00364   0.00000   0.03293   0.03315  -3.12139
    D5       -0.92845   0.00058   0.00000   0.01164   0.01166  -0.91678
    D6        1.10173  -0.00253   0.00000  -0.04054  -0.04099   1.06074
    D7        1.06407   0.00219   0.00000   0.01253   0.01287   1.07695
    D8       -2.99302  -0.00087   0.00000  -0.00876  -0.00861  -3.00163
    D9       -0.96284  -0.00399   0.00000  -0.06094  -0.06126  -1.02411
   D10       -1.01829  -0.00036   0.00000   0.01951   0.01879  -0.99950
   D11        3.04369  -0.00303   0.00000   0.01323   0.01328   3.05698
   D12        1.02669   0.00558   0.00000   0.09171   0.09238   1.11908
   D13       -1.00311  -0.00079   0.00000   0.01402   0.01402  -0.98908
   D14        1.20110   0.00325   0.00000   0.03449   0.03361   1.23471
   D15       -3.05788  -0.00141   0.00000   0.01128   0.01216  -3.04572
   D16       -2.04092   0.01241   0.00000   0.61725   0.61725  -1.42367
   D17        0.90970  -0.00211   0.00000  -0.10324  -0.10351   0.80619
   D18       -2.25713  -0.00270   0.00000  -0.12498  -0.12471  -2.38184
   D19        3.12890  -0.00056   0.00000  -0.01476  -0.01491   3.11399
   D20       -0.01028  -0.00070   0.00000  -0.01907  -0.01913  -0.02941
   D21        0.01426   0.00035   0.00000   0.00939   0.00950   0.02376
   D22       -3.12492   0.00021   0.00000   0.00509   0.00528  -3.11965
   D23       -3.13200   0.00120   0.00000   0.03311   0.03315  -3.09885
   D24       -0.01538   0.00043   0.00000   0.01101   0.01103  -0.00434
   D25       -0.00463  -0.00054   0.00000  -0.01561  -0.01553  -0.02015
   D26        3.13840  -0.00009   0.00000  -0.00348  -0.00341   3.13500
   D27        3.13460  -0.00041   0.00000  -0.01143  -0.01137   3.12324
   D28       -0.00555   0.00004   0.00000   0.00069   0.00075  -0.00480
   D29       -0.00299   0.00011   0.00000   0.00221   0.00235  -0.00065
   D30        3.14093   0.00020   0.00000   0.00508   0.00521  -3.13705
   D31        3.13715  -0.00034   0.00000  -0.00997  -0.00990   3.12725
   D32       -0.00211  -0.00025   0.00000  -0.00710  -0.00704  -0.00915
   D33        0.00172   0.00076   0.00000   0.01960   0.01971   0.02143
   D34       -3.13889   0.00006   0.00000   0.00221   0.00225  -3.13664
   D35        3.14099   0.00067   0.00000   0.01675   0.01688  -3.12531
   D36        0.00038  -0.00002   0.00000  -0.00064  -0.00057  -0.00019
   D37        0.00735  -0.00105   0.00000  -0.02628  -0.02621  -0.01887
   D38       -3.13517  -0.00040   0.00000  -0.00982  -0.00971   3.13830
         Item               Value     Threshold  Converged?
 Maximum Force            0.017340     0.000450     NO 
 RMS     Force            0.004698     0.000300     NO 
 Maximum Displacement     2.413799     0.001800     NO 
 RMS     Displacement     0.624233     0.001200     NO 
 Predicted change in Energy=-1.114524D-02
 GradGradGradGradGradGradGradGradGradGradGradGradGradGradGradGradGradGrad

                          Input orientation:                          
 ---------------------------------------------------------------------
 Center     Atomic      Atomic             Coordinates (Angstroms)
 Number     Number       Type             X           Y           Z
 ---------------------------------------------------------------------
      1          6           0        0.684827   -0.222883    0.385340
      2          6           0       -0.349408   -1.112291   -0.303162
      3         16           0       -1.244591   -2.211743    0.880368
      4         16           0       -1.536105   -0.167353   -1.329404
      5         16           0       -2.354512    1.180779    0.018769
      6          6           0       -3.602097    0.189891    0.840636
      7          6           0       -3.351436   -1.102825    1.308886
      8          6           0       -4.379665   -1.774049    1.962865
      9          6           0       -5.600170   -1.123576    2.143592
     10          6           0       -5.733391    0.176533    1.658433
     11          7           0       -4.764807    0.831462    1.006731
     12          1           0        0.216839    0.400155    1.152420
     13          1           0        1.180441    0.428780   -0.343540
     14          1           0        1.454814   -0.835736    0.869475
     15          1           0        0.144489   -1.746655   -1.046554
     16          1           0       -0.139648   -2.815084    1.370040
     17          1           0       -2.385153   -1.574685    1.167614
     18          1           0       -4.221884   -2.782443    2.334417
     19          1           0       -6.427451   -1.608665    2.651965
     20          1           0       -6.663174    0.728327    1.778269
 ---------------------------------------------------------------------
                    Distance matrix (angstroms):
                    1          2          3          4          5
     1  C    0.000000
     2  C    1.527981   0.000000
     3  S    2.814830   1.846859   0.000000
     4  S    2.806417   1.831483   3.024500   0.000000
     5  S    3.367822   3.063045   3.671986   2.074805   0.000000
     6  C    4.330750   3.685639   3.365599   3.017452   1.792705
     7  C    4.233044   3.407486   2.419116   3.336332   2.805906
     8  C    5.526643   4.670736   3.345455   4.637493   4.075753
     9  C    6.588162   5.792860   4.663787   5.430717   4.512119
    10  C    6.555442   5.873345   5.143790   5.163587   3.887650
    11  N    5.585363   4.998973   4.654995   4.108487   2.628233
    12  H    1.093436   2.174132   3.005295   3.091008   2.916571
    13  H    1.096159   2.171859   3.788283   2.950751   3.632171
    14  H    1.096747   2.169511   3.029900   3.771923   4.393290
    15  H    2.159668   1.094981   2.420511   2.323488   3.993718
    16  H    2.892905   2.396479   1.350814   4.030828   4.764292
    17  H    3.444430   2.553673   1.337623   2.989409   2.985526
    18  H    5.867373   4.974163   3.362177   5.241726   4.955445
    19  H    7.592264   6.776560   5.510381   6.469462   5.594957
    20  H    7.539110   6.898106   6.229870   6.061907   4.676015
                    6          7          8          9         10
     6  C    0.000000
     7  C    1.397571   0.000000
     8  C    2.391876   1.391217   0.000000
     9  C    2.723084   2.398743   1.394779   0.000000
    10  C    2.282846   2.726289   2.393747   1.394063   0.000000
    11  N    1.338318   2.414618   2.802001   2.410903   1.338582
    12  H    3.837407   3.875051   5.148964   6.094405   5.975892
    13  H    4.932749   5.061051   6.409894   7.387308   7.202263
    14  H    5.159950   4.833679   6.009748   7.174888   7.301878
    15  H    4.620454   4.264282   5.433721   6.600482   6.750190
    16  H    4.615051   3.640214   4.406012   5.768612   6.350032
    17  H    2.168316   1.084579   2.156444   3.390039   3.810297
    18  H    3.383828   2.151862   1.086188   2.165162   3.390745
    19  H    3.807669   3.394348   2.166942   1.085426   2.157721
    20  H    3.246423   3.813273   3.392694   2.166329   1.087812
                   11         12         13         14         15
    11  N    0.000000
    12  H    5.002404   0.000000
    13  H    6.109939   1.779675   0.000000
    14  H    6.440657   1.772023   1.773608   0.000000
    15  H    5.913023   3.074006   2.509969   2.493570   0.000000
    16  H    5.900965   3.242253   3.898929   2.590500   2.657480
    17  H    3.387946   3.266587   4.360151   3.921769   3.366184
    18  H    3.888165   5.588230   6.831437   6.177428   5.618633
    19  H    3.380148   7.101449   8.426402   8.118176   7.542445
    20  H    2.051757   6.916210   8.131058   8.317086   7.774923
                   16         17         18         19         20
    16  H    0.000000
    17  H    2.573297   0.000000
    18  H    4.194728   2.488713   0.000000
    19  H    6.529567   4.306347   2.518554   0.000000
    20  H    7.434972   4.896757   4.312158   2.506081   0.000000
 Stoichiometry    C7H9NS3
 Framework group  C1[X(C7H9NS3)]
 Deg. of freedom    54
 Full point group                 C1      NOp   1
 Largest Abelian subgroup         C1      NOp   1
 Largest concise Abelian subgroup C1      NOp   1
                         Standard orientation:                         
 ---------------------------------------------------------------------
 Center     Atomic      Atomic             Coordinates (Angstroms)
 Number     Number       Type             X           Y           Z
 ---------------------------------------------------------------------
      1          6           0        3.010428    0.063673   -1.122723
      2          6           0        2.357903    0.417484    0.212850
      3         16           0        1.160077    1.816183    0.072342
      4         16           0        1.575195   -1.022313    1.030580
      5         16           0        0.237847   -1.706504   -0.400574
      6          6           0       -1.160952   -0.608714   -0.172521
      7          6           0       -1.020807    0.775999   -0.045504
      8          6           0       -2.174012    1.541531    0.094367
      9          6           0       -3.413117    0.901422    0.077336
     10          6           0       -3.438508   -0.483417   -0.080730
     11          7           0       -2.340496   -1.240625   -0.193908
     12          1           0        2.256187   -0.198437   -1.869732
     13          1           0        3.697989   -0.781857   -1.004820
     14          1           0        3.584991    0.915865   -1.505478
     15          1           0        3.128189    0.703371    0.936667
     16          1           0        2.042911    2.702449   -0.437398
     17          1           0       -0.043111    1.245427   -0.053397
     18          1           0       -2.102036    2.620010    0.201636
     19          1           0       -4.337791    1.460699    0.178999
     20          1           0       -4.379366   -1.028874   -0.105145
 ---------------------------------------------------------------------
 Rotational constants (GHZ):           1.2858693           0.5640199           0.4351471
 Standard basis: 6-31G(d) (6D, 7F)
 There are   195 symmetry adapted cartesian basis functions of A   symmetry.
 There are   195 symmetry adapted basis functions of A   symmetry.
   195 basis functions,   416 primitive gaussians,   195 cartesian basis functions
    53 alpha electrons       53 beta electrons
       nuclear repulsion energy       910.3977169614 Hartrees.
 NAtoms=   20 NActive=   20 NUniq=   20 SFac= 1.00D+00 NAtFMM=   60 NAOKFM=F Big=F
 Integral buffers will be    131072 words long.
 Raffenetti 2 integral format.
 Two-electron integral symmetry is turned on.
 Nuclear repulsion after empirical dispersion term =      910.3462290196 Hartrees.
 One-electron integrals computed using PRISM.
 NBasis=   195 RedAO= T EigKep=  7.59D-04  NBF=   195
 NBsUse=   195 1.00D-06 EigRej= -1.00D+00 NBFU=   195
 Initial guess from the checkpoint file:  "JID_1155.chk"
 B after Tr=    -0.000000   -0.000000   -0.000000
         Rot=    0.997695   -0.041798   -0.018942   -0.049985 Ang=  -7.78 deg.
 ExpMin= 1.17D-01 ExpMax= 2.19D+04 ExpMxC= 3.30D+03 IAcc=2 IRadAn=         4 AccDes= 0.00D+00
 Harris functional with IExCor=  402 and IRadAn=       4 diagonalized for initial guess.
 HarFok:  IExCor=  402 AccDes= 0.00D+00 IRadAn=         4 IDoV= 1 UseB2=F ITyADJ=14
 ICtDFT=  3500011 ScaDFX=  1.000000  1.000000  1.000000  1.000000
 FoFCou: FMM=F IPFlag=           0 FMFlag=      100000 FMFlg1=           0
         NFxFlg=           0 DoJE=T BraDBF=F KetDBF=T FulRan=T
         wScrn=  0.000000 ICntrl=       500 IOpCl=  0 I1Cent=   200000004 NGrid=           0
         NMat0=    1 NMatS0=      1 NMatT0=    0 NMatD0=    1 NMtDS0=    0 NMtDT0=    0
 Petite list used in FoFCou.
 Keep R1 ints in memory in canonical form, NReq=186691277.
 Requested convergence on RMS density matrix=1.00D-08 within  32 cycles.
 Requested convergence on MAX density matrix=1.00D-06.
 Requested convergence on             energy=1.00D-06.
 No special actions if energy rises.
 Integral accuracy reduced to 1.0D-05 until final iterations.
 Initial convergence to 1.0D-05 achieved.  Increase integral accuracy.
 SCF Done:  E(RB3LYP) =  -1521.39483628     A.U. after   16 cycles
            NFock= 16  Conv=0.32D-08     -V/T= 2.0041
 QCSCF skips out because SCF is already converged.
 Calling FoFJK, ICntrl=      2127 FMM=F ISym2X=0 I1Cent= 0 IOpClX= 0 NMat=1 NMatS=1 NMatT=0.
 ***** Axes restored to original set *****
 -------------------------------------------------------------------
 Center     Atomic                   Forces (Hartrees/Bohr)
 Number     Number              X              Y              Z
 -------------------------------------------------------------------
      1        6           0.002033875   -0.002169519    0.003324052
      2        6           0.006585517    0.007551315   -0.002065557
      3       16           0.171576354   -0.103773962   -0.027094067
      4       16          -0.002121901   -0.001120400   -0.001086527
      5       16           0.000950662    0.003091532   -0.001096871
      6        6          -0.013681067   -0.000467866    0.005341097
      7        6          -0.070216416    0.040951377   -0.003784547
      8        6           0.001246466    0.004269465   -0.002555042
      9        6          -0.000416287   -0.001097703    0.002603115
     10        6          -0.000716470    0.002097373   -0.000945191
     11        7           0.002382564    0.000905653    0.001148174
     12        1          -0.000598623    0.000103994   -0.001285603
     13        1          -0.001819130   -0.001285989   -0.000687594
     14        1          -0.001162292   -0.000426438    0.000078681
     15        1          -0.002333580   -0.002396897    0.000895239
     16        1           0.017426521   -0.007739199   -0.006138507
     17        1          -0.107825558    0.064426184    0.032688447
     18        1           0.000063083   -0.002228109    0.000015196
     19        1          -0.000557083    0.000344370   -0.000044139
     20        1          -0.000816634   -0.001035180    0.000689643
 -------------------------------------------------------------------
 Cartesian Forces:  Max     0.171576354 RMS     0.032976226

 GradGradGradGradGradGradGradGradGradGradGradGradGradGradGradGradGradGrad
 Berny optimization.
 Using GEDIIS/GDIIS optimizer.
 FormGI is forming the generalized inverse of G from B-inverse, IUseBI=4.
 Internal  Forces:  Max     0.836973054 RMS     0.164358648
 Search for a local minimum.
 Step number   2 out of a maximum of   99
 All quantities printed in internal units (Hartrees-Bohrs-Radians)
 Mixed Optimization -- RFO/linear search
 Update second derivatives using D2CorX and points    2    1
 DE=  1.20D-01 DEPred=-1.11D-02 R=-1.07D+01
 Trust test=-1.07D+01 RLast= 6.76D-01 DXMaxT set to 1.50D-01
 ITU= -1  0
 Use linear search instead of GDIIS.
     Eigenvalues ---    0.00212   0.00231   0.00433   0.00558   0.01875
     Eigenvalues ---    0.02189   0.02193   0.02209   0.02226   0.02274
     Eigenvalues ---    0.02282   0.02325   0.03268   0.04367   0.05581
     Eigenvalues ---    0.05662   0.06946   0.08804   0.14418   0.15998
     Eigenvalues ---    0.15999   0.16000   0.16000   0.16000   0.16000
     Eigenvalues ---    0.16003   0.18903   0.20783   0.20890   0.22008
     Eigenvalues ---    0.22529   0.23705   0.24549   0.24951   0.25000
     Eigenvalues ---    0.26257   0.27211   0.28017   0.29863   0.34066
     Eigenvalues ---    0.34122   0.34205   0.34258   0.35235   0.35241
     Eigenvalues ---    0.35504   0.35685   0.42464   0.43787   0.45889
     Eigenvalues ---    0.47767   0.50426   0.53829   4.47783
 RFO step:  Lambda=-2.19168116D-01 EMin= 2.12019717D-03
 Quartic linear search produced a step of -0.66192.
 Maximum step size (   0.150) exceeded in Quadratic search.
    -- Step size scaled by   0.342
 Iteration  1 RMS(Cart)=  0.27849819 RMS(Int)=  0.01252281
 Iteration  2 RMS(Cart)=  0.09331770 RMS(Int)=  0.00119670
 Iteration  3 RMS(Cart)=  0.00257696 RMS(Int)=  0.00021695
 Iteration  4 RMS(Cart)=  0.00000157 RMS(Int)=  0.00021695
 Iteration  5 RMS(Cart)=  0.00000000 RMS(Int)=  0.00021695
 Variable       Old X    -DE/DX   Delta X   Delta X   Delta X     New X
                                 (Linear)    (Quad)   (Total)
    R1        2.88746  -0.00260  -0.00352   0.00248  -0.00105   2.88642
    R2        2.06629  -0.00059   0.00222  -0.00178   0.00044   2.06674
    R3        2.07144  -0.00113  -0.00013  -0.00001  -0.00014   2.07129
    R4        2.07255  -0.00054  -0.00024   0.00013  -0.00011   2.07244
    R5        3.49006  -0.04652  -0.03784   0.02451  -0.01333   3.47673
    R6        3.46100   0.16256   0.00198   0.01864   0.02063   3.48163
    R7        2.06921  -0.00027  -0.00016   0.00010  -0.00006   2.06915
    R8        2.55267   0.01549  -0.01273   0.01191  -0.00082   2.55185
    R9        3.92081   0.16921  -0.01657   0.03213   0.01556   3.93637
   R10        3.38772   0.08893  -0.01070   0.01868   0.00798   3.39570
   R11        2.64103  -0.09385  -0.00956  -0.00063  -0.01023   2.63080
   R12        2.52905   0.02216   0.02174  -0.01461   0.00711   2.53616
   R13        2.62902   0.00459   0.00369  -0.00245   0.00121   2.63023
   R14        2.04956  -0.12835  -0.00357  -0.00987  -0.01344   2.03612
   R15        2.63575  -0.02074  -0.00864   0.00489  -0.00373   2.63202
   R16        2.05260   0.00208   0.00017   0.00008   0.00025   2.05284
   R17        2.63440  -0.02616  -0.01399   0.00853  -0.00541   2.62898
   R18        2.05116   0.00025  -0.00175   0.00138  -0.00038   2.05078
   R19        2.52955  -0.00550   0.01500  -0.01152   0.00351   2.53307
   R20        2.05567   0.00025  -0.00191   0.00150  -0.00041   2.05526
    A1        1.93701  -0.00052   0.02156  -0.01832   0.00339   1.94040
    A2        1.93100  -0.00268   0.00408  -0.00373   0.00043   1.93143
    A3        1.92714  -0.00041   0.00287  -0.00233   0.00060   1.92773
    A4        1.89784   0.00112  -0.00817   0.00651  -0.00151   1.89634
    A5        1.88515   0.00089  -0.00797   0.00640  -0.00144   1.88372
    A6        1.88420   0.00177  -0.01434   0.01266  -0.00170   1.88250
    A7        1.96691  -0.08040  -0.02321   0.01102  -0.01180   1.95511
    A8        1.97223  -0.13921  -0.00549  -0.01192  -0.01778   1.95445
    A9        1.91541   0.06301  -0.01939   0.02171   0.00280   1.91820
   A10        1.93068   0.29813   0.02790   0.02177   0.04980   1.98048
   A11        1.88474  -0.08789  -0.01844  -0.00066  -0.01762   1.86712
   A12        1.78314  -0.05134   0.04081  -0.04653  -0.00574   1.77739
   A13        1.67269  -0.02399   0.00686  -0.00927  -0.00241   1.67028
   A14        1.79951   0.83697   0.02770   0.07916   0.10686   1.90637
   A15        1.78570   0.83355   0.02945   0.07735   0.10680   1.89250
   A16        2.14129   0.26375   0.00302   0.02958   0.03267   2.17396
   A17        1.97853  -0.18400   0.01975  -0.03791  -0.01809   1.96044
   A18        2.16236  -0.07979  -0.02230   0.00774  -0.01455   2.14780
   A19        2.06146   0.05514   0.01183  -0.00268   0.00909   2.07055
   A20        2.11598  -0.02928   0.00283  -0.00616  -0.00330   2.11268
   A21        2.10575  -0.02584  -0.01466   0.00884  -0.00579   2.09996
   A22        2.07446   0.00683   0.00602  -0.00393   0.00210   2.07656
   A23        2.09596  -0.00340   0.00074  -0.00116  -0.00040   2.09556
   A24        2.11268  -0.00347  -0.00670   0.00499  -0.00169   2.11099
   A25        2.06401  -0.02836  -0.00353  -0.00054  -0.00399   2.06002
   A26        2.11672   0.01480  -0.00047   0.00221   0.00170   2.11842
   A27        2.10244   0.01356   0.00400  -0.00168   0.00228   2.10473
   A28        2.16106  -0.01066   0.00011  -0.00129  -0.00106   2.16001
   A29        2.11345   0.00382  -0.00048   0.00073   0.00023   2.11368
   A30        2.00857   0.00684   0.00044   0.00041   0.00084   2.00941
   A31        2.04263   0.05678   0.00807   0.00032   0.00843   2.05106
    D1       -1.01297  -0.11605  -0.01472  -0.00866  -0.02357  -1.03653
    D2        1.19164   0.10896  -0.00050   0.02040   0.01979   1.21143
    D3       -3.11402   0.00490   0.03435  -0.03021   0.00440  -3.10962
    D4       -3.12139  -0.11532  -0.02194  -0.00215  -0.02422   3.13758
    D5       -0.91678   0.10969  -0.00772   0.02691   0.01914  -0.89765
    D6        1.06074   0.00563   0.02713  -0.02370   0.00374   1.06449
    D7        1.07695  -0.11554  -0.00852  -0.01404  -0.02277   1.05418
    D8       -3.00163   0.10947   0.00570   0.01502   0.02059  -2.98105
    D9       -1.02411   0.00541   0.04055  -0.03559   0.00519  -1.01891
   D10       -0.99950   0.00100  -0.01244   0.01638   0.00437  -0.99513
   D11        3.05698   0.00866  -0.00879   0.00585  -0.00313   3.05385
   D12        1.11908  -0.03138  -0.06115   0.05022  -0.01117   1.10790
   D13       -0.98908   0.09582  -0.00928   0.03077   0.02154  -0.96755
   D14        1.23471   0.12141  -0.02225   0.05401   0.03229   1.26700
   D15       -3.04572   0.11692  -0.00805   0.03830   0.02969  -3.01604
   D16       -1.42367  -0.74226  -0.40857   0.19758  -0.21099  -1.63466
   D17        0.80619   0.03194   0.06852  -0.05686   0.01184   0.81803
   D18       -2.38184   0.02753   0.08255  -0.07053   0.01184  -2.37000
   D19        3.11399  -0.00351   0.00987  -0.00965   0.00030   3.11430
   D20       -0.02941   0.00476   0.01266  -0.01031   0.00239  -0.02702
   D21        0.02376   0.00270  -0.00629   0.00657   0.00020   0.02396
   D22       -3.11965   0.01097  -0.00349   0.00592   0.00229  -3.11735
   D23       -3.09885  -0.00765  -0.02194   0.01936  -0.00261  -3.10146
   D24       -0.00434  -0.00162  -0.00730   0.00615  -0.00116  -0.00550
   D25       -0.02015  -0.00209   0.01028  -0.00981   0.00041  -0.01974
   D26        3.13500   0.00046   0.00226  -0.00190   0.00031   3.13531
   D27        3.12324  -0.01031   0.00752  -0.00914  -0.00167   3.12157
   D28       -0.00480  -0.00776  -0.00050  -0.00123  -0.00176  -0.00656
   D29       -0.00065  -0.00119  -0.00155   0.00124  -0.00041  -0.00105
   D30       -3.13705   0.00055  -0.00345   0.00337  -0.00016  -3.13721
   D31        3.12725  -0.00376   0.00655  -0.00681  -0.00030   3.12696
   D32       -0.00915  -0.00202   0.00466  -0.00468  -0.00005  -0.00920
   D33        0.02143   0.00128  -0.01304   0.01236  -0.00075   0.02068
   D34       -3.13664   0.00079  -0.00149   0.00164   0.00012  -3.13652
   D35       -3.12531  -0.00045  -0.01117   0.01026  -0.00100  -3.12631
   D36       -0.00019  -0.00093   0.00038  -0.00046  -0.00012  -0.00032
   D37       -0.01887  -0.00046   0.01735  -0.01586   0.00145  -0.01742
   D38        3.13830   0.00001   0.00643  -0.00573   0.00062   3.13893
         Item               Value     Threshold  Converged?
 Maximum Force            0.836973     0.000450     NO 
 RMS     Force            0.164359     0.000300     NO 
 Maximum Displacement     1.529035     0.001800     NO 
 RMS     Displacement     0.367110     0.001200     NO 
 Predicted change in Energy=-1.347510D-01
 GradGradGradGradGradGradGradGradGradGradGradGradGradGradGradGradGradGrad

                          Input orientation:                          
 ---------------------------------------------------------------------
 Center     Atomic      Atomic             Coordinates (Angstroms)
 Number     Number       Type             X           Y           Z
 ---------------------------------------------------------------------
      1          6           0        0.927468   -0.150707    0.260525
      2          6           0       -0.058681   -1.138442   -0.359896
      3         16           0       -0.577958   -2.437319    0.835155
      4         16           0       -1.472678   -0.282151   -1.173413
      5         16           0       -2.396412    0.977571    0.204579
      6          6           0       -3.755068    0.084202    0.969366
      7          6           0       -3.666224   -1.212621    1.467823
      8          6           0       -4.789662   -1.775547    2.066375
      9          6           0       -5.952723   -1.015892    2.166949
     10          6           0       -5.933140    0.279798    1.660752
     11          7           0       -4.867205    0.829658    1.062237
     12          1           0        0.490856    0.350707    1.128896
     13          1           0        1.224774    0.609825   -0.470636
     14          1           0        1.834061   -0.671359    0.591794
     15          1           0        0.410105   -1.651471   -1.206034
     16          1           0        0.669483   -2.879871    1.102671
     17          1           0       -2.749609   -1.774297    1.395186
     18          1           0       -4.748014   -2.787974    2.457966
     19          1           0       -6.849719   -1.414529    2.629770
     20          1           0       -6.811735    0.918359    1.717093
 ---------------------------------------------------------------------
                    Distance matrix (angstroms):
                    1          2          3          4          5
     1  C    0.000000
     2  C    1.527426   0.000000
     3  S    2.797338   1.839804   0.000000
     4  S    2.798956   1.842398   3.078899   0.000000
     5  S    3.510602   3.203300   3.919933   2.083038   0.000000
     6  C    4.741707   4.114009   4.058338   3.151987   1.796929
     7  C    4.866953   4.044802   3.381943   3.557182   2.829337
     8  C    6.211825   5.354892   4.437599   4.871225   4.095556
     9  C    7.191663   6.414023   5.716837   5.636239   4.524614
    10  C    7.015263   6.372102   6.061543   5.314508   3.887900
    11  N    5.931450   5.386816   5.396512   4.213913   2.619594
    12  H    1.093670   2.176248   3.000289   3.091376   3.095746
    13  H    1.096082   2.171625   3.773595   2.926732   3.701910
    14  H    1.096690   2.169413   2.999279   3.768549   4.556952
    15  H    2.161193   1.094948   2.400058   2.328299   4.096124
    16  H    2.867769   2.387865   1.350380   4.064180   5.008606
    17  H    4.176648   3.275014   2.338653   3.233381   3.019117
    18  H    6.632874   5.714119   4.488412   5.494897   4.978666
    19  H    8.227709   7.425128   6.603160   6.682743   5.606749
    20  H    7.947311   7.358536   7.134308   6.188843   4.667577
                    6          7          8          9         10
     6  C    0.000000
     7  C    1.392157   0.000000
     8  C    2.394259   1.391856   0.000000
     9  C    2.733879   2.399074   1.392804   0.000000
    10  C    2.293528   2.720927   2.386737   1.391197   0.000000
    11  N    1.342080   2.403697   2.793098   2.409313   1.340441
    12  H    4.257270   4.454232   5.769202   6.668197   6.446365
    13  H    5.210442   5.567835   6.949809   7.817689   7.475791
    14  H    5.652592   5.595849   6.875123   7.951969   7.897897
    15  H    5.009351   4.894748   6.145049   7.229561   7.223920
    16  H    5.327302   4.659550   5.652478   6.961372   7.340952
    17  H    2.155525   1.077469   2.147629   3.380937   3.797987
    18  H    3.383972   2.152299   1.086318   2.162473   3.383976
    19  H    3.818376   3.394927   2.166006   1.085227   2.156353
    20  H    3.255476   3.807552   3.386429   2.163699   1.087595
                   11         12         13         14         15
    11  N    0.000000
    12  H    5.379839   0.000000
    13  H    6.285717   1.778842   0.000000
    14  H    6.883410   1.771241   1.772406   0.000000
    15  H    6.257081   3.076871   2.513554   2.494085   0.000000
    16  H    6.664619   3.235618   3.868025   2.548482   2.627996
    17  H    3.372781   3.884220   4.996103   4.782461   4.094536
    18  H    3.879372   6.250081   7.469668   7.161450   6.428276
    19  H    3.379925   7.697579   8.883015   8.950624   8.214291
    20  H    2.053752   7.348200   8.334676   8.862465   8.203881
                   16         17         18         19         20
    16  H    0.000000
    17  H    3.605280   0.000000
    18  H    5.585208   2.480054   0.000000
    19  H    7.811379   4.297038   2.516551   0.000000
    20  H    8.412650   4.884147   4.306360   2.505351   0.000000
 Stoichiometry    C7H9NS3
 Framework group  C1[X(C7H9NS3)]
 Deg. of freedom    54
 Full point group                 C1      NOp   1
 Largest Abelian subgroup         C1      NOp   1
 Largest concise Abelian subgroup C1      NOp   1
                         Standard orientation:                         
 ---------------------------------------------------------------------
 Center     Atomic      Atomic             Coordinates (Angstroms)
 Number     Number       Type             X           Y           Z
 ---------------------------------------------------------------------
      1          6           0        3.249318   -0.405914   -1.035946
      2          6           0        2.635424    0.154387    0.245549
      3         16           0        1.927257    1.833734   -0.005784
      4         16           0        1.456835   -1.030536    1.020996
      5         16           0        0.001358   -1.560811   -0.371644
      6          6           0       -1.410603   -0.469435   -0.161369
      7          6           0       -1.327250    0.914624   -0.036724
      8          6           0       -2.505342    1.645225    0.088102
      9          6           0       -3.723709    0.970911    0.060077
     10          6           0       -3.702409   -0.411570   -0.093940
     11          7           0       -2.576888   -1.132690   -0.193793
     12          1           0        2.504412   -0.474302   -1.833788
     13          1           0        3.667508   -1.403748   -0.860332
     14          1           0        4.061453    0.242123   -1.386963
     15          1           0        3.405027    0.244423    1.019187
     16          1           0        3.070925    2.396134   -0.452165
     17          1           0       -0.373603    1.416118   -0.036425
     18          1           0       -2.467130    2.725825    0.192656
     19          1           0       -4.665733    1.502160    0.149983
     20          1           0       -4.624416   -0.987470   -0.127179
 ---------------------------------------------------------------------
 Rotational constants (GHZ):           1.3355205           0.4560943           0.3696492
 Standard basis: 6-31G(d) (6D, 7F)
 There are   195 symmetry adapted cartesian basis functions of A   symmetry.
 There are   195 symmetry adapted basis functions of A   symmetry.
   195 basis functions,   416 primitive gaussians,   195 cartesian basis functions
    53 alpha electrons       53 beta electrons
       nuclear repulsion energy       872.7220773873 Hartrees.
 NAtoms=   20 NActive=   20 NUniq=   20 SFac= 1.00D+00 NAtFMM=   60 NAOKFM=F Big=F
 Integral buffers will be    131072 words long.
 Raffenetti 2 integral format.
 Two-electron integral symmetry is turned on.
 Nuclear repulsion after empirical dispersion term =      872.6740142873 Hartrees.
 One-electron integrals computed using PRISM.
 NBasis=   195 RedAO= T EigKep=  8.13D-04  NBF=   195
 NBsUse=   195 1.00D-06 EigRej= -1.00D+00 NBFU=   195
 Lowest energy guess from the checkpoint file:  "JID_1155.chk"
 B after Tr=     0.000000   -0.000000   -0.000000
         Rot=    0.999423   -0.030914   -0.011199   -0.008538 Ang=  -3.89 deg.
 B after Tr=     0.000000   -0.000000   -0.000000
         Rot=    0.998966    0.015336    0.004003    0.042607 Ang=   5.21 deg.
 Keep R1 ints in memory in canonical form, NReq=186691277.
 Requested convergence on RMS density matrix=1.00D-08 within  32 cycles.
 Requested convergence on MAX density matrix=1.00D-06.
 Requested convergence on             energy=1.00D-06.
 No special actions if energy rises.
 Integral accuracy reduced to 1.0D-05 until final iterations.
 Initial convergence to 1.0D-05 achieved.  Increase integral accuracy.
 SCF Done:  E(RB3LYP) =  -1521.51616452     A.U. after   14 cycles
            NFock= 14  Conv=0.40D-08     -V/T= 2.0046
 QCSCF skips out because SCF is already converged.
 Calling FoFJK, ICntrl=      2127 FMM=F ISym2X=0 I1Cent= 0 IOpClX= 0 NMat=1 NMatS=1 NMatT=0.
 ***** Axes restored to original set *****
 -------------------------------------------------------------------
 Center     Atomic                   Forces (Hartrees/Bohr)
 Number     Number              X              Y              Z
 -------------------------------------------------------------------
      1        6           0.003363700   -0.000107574    0.000857154
      2        6           0.007296599    0.009119422    0.002728103
      3       16           0.000661474   -0.004344927   -0.000493175
      4       16          -0.007086493   -0.007223630   -0.000624988
      5       16           0.006867908    0.003614033    0.001009676
      6        6          -0.011419423    0.001903568   -0.000795476
      7        6           0.000265347   -0.004151829   -0.000283013
      8        6          -0.000136463    0.001119307   -0.000362277
      9        6          -0.000881200   -0.001933399    0.001328848
     10        6           0.002033031    0.005057842   -0.002105592
     11        7           0.004219322   -0.003128782    0.000180415
     12        1          -0.001407659   -0.000331869   -0.000826388
     13        1          -0.001097879   -0.001009562   -0.000226430
     14        1          -0.000559435   -0.000399688    0.000486505
     15        1          -0.002232973    0.001371378   -0.002404523
     16        1           0.000804803    0.000278735    0.000540859
     17        1           0.000139975    0.000257334    0.000743948
     18        1           0.000130377    0.000077314   -0.000225249
     19        1          -0.000292656    0.000240167   -0.000250990
     20        1          -0.000668355   -0.000407842    0.000722592
 -------------------------------------------------------------------
 Cartesian Forces:  Max     0.011419423 RMS     0.003115793

 GradGradGradGradGradGradGradGradGradGradGradGradGradGradGradGradGradGrad
 Berny optimization.
 Using GEDIIS/GDIIS optimizer.
 FormGI is forming the generalized inverse of G from B-inverse, IUseBI=4.
 Internal  Forces:  Max     0.025142540 RMS     0.003524655
 Search for a local minimum.
 Step number   3 out of a maximum of   99
 All quantities printed in internal units (Hartrees-Bohrs-Radians)
 Mixed Optimization -- RFO/linear search
 Update second derivatives using D2CorX and points    2    1    3
 DE= -1.72D-03 DEPred=-1.35D-01 R= 1.28D-02
 Trust test= 1.28D-02 RLast= 4.89D-01 DXMaxT set to 7.50D-02
 ITU= -1 -1  0
 Use linear search instead of GDIIS.
     Eigenvalues ---    0.00228   0.00235   0.00432   0.00543   0.01875
     Eigenvalues ---    0.02181   0.02195   0.02209   0.02223   0.02273
     Eigenvalues ---    0.02281   0.02325   0.02890   0.04903   0.05540
     Eigenvalues ---    0.05660   0.05994   0.08730   0.14936   0.15999
     Eigenvalues ---    0.15999   0.16000   0.16000   0.16000   0.16002
     Eigenvalues ---    0.16063   0.19138   0.20932   0.21297   0.22026
     Eigenvalues ---    0.22763   0.23727   0.24547   0.24975   0.25309
     Eigenvalues ---    0.26331   0.27189   0.28409   0.29899   0.34066
     Eigenvalues ---    0.34129   0.34209   0.34258   0.35236   0.35241
     Eigenvalues ---    0.35508   0.35680   0.43099   0.43790   0.46091
     Eigenvalues ---    0.47781   0.50630   0.53867   1.34646
 RFO step:  Lambda=-9.76806846D-03 EMin= 2.28410673D-03
 Quartic linear search produced a step of -0.37349.
 Maximum step size (   0.075) exceeded in Quadratic search.
    -- Step size scaled by   0.282
 Iteration  1 RMS(Cart)=  0.14449793 RMS(Int)=  0.00593265
 Iteration  2 RMS(Cart)=  0.02760114 RMS(Int)=  0.00016323
 Iteration  3 RMS(Cart)=  0.00036704 RMS(Int)=  0.00006943
 Iteration  4 RMS(Cart)=  0.00000003 RMS(Int)=  0.00006943
 Variable       Old X    -DE/DX   Delta X   Delta X   Delta X     New X
                                 (Linear)    (Quad)   (Total)
    R1        2.88642  -0.00088  -0.00160   0.00170   0.00010   2.88652
    R2        2.06674  -0.00025   0.00109  -0.00149  -0.00040   2.06633
    R3        2.07129  -0.00085  -0.00002  -0.00033  -0.00035   2.07094
    R4        2.07244  -0.00013  -0.00009   0.00009  -0.00000   2.07244
    R5        3.47673   0.00249  -0.01637   0.02558   0.00921   3.48594
    R6        3.48163   0.00341  -0.00658  -0.00108  -0.00767   3.47396
    R7        2.06915   0.00026  -0.00007   0.00023   0.00017   2.06932
    R8        2.55185   0.00076  -0.00688   0.00812   0.00124   2.55309
    R9        3.93637   0.00146  -0.01516   0.00895  -0.00621   3.93016
   R10        3.39570   0.00503  -0.00902   0.00856  -0.00046   3.39525
[...]
   101    S    4  dxz    Ryd( 3d)     0.00322       1.17620
   102    S    4  dyz    Ryd( 3d)     0.00228       1.12752
   103    S    4  dx2y2  Ryd( 3d)     0.00095       1.02289
   104    S    4  dz2    Ryd( 3d)     0.00168       1.00020
 
   105    S    5  S      Cor( 1S)     1.00000     -87.60070
   106    S    5  S      Cor( 2S)     0.99968      -8.78075
   107    S    5  S      Val( 3S)     0.86805      -0.62943
   108    S    5  S      Ryd( 4S)     0.00287       1.04608
   109    S    5  S      Ryd( 5S)     0.00095       2.19633
   110    S    5  S      Ryd( 6S)     0.00004      11.86664
   111    S    5  S      Ryd( 7S)     0.00000     182.68484
   112    S    5  px     Cor( 2p)     0.99993      -5.79974
   113    S    5  px     Val( 3p)     0.51498      -0.08165
   114    S    5  px     Ryd( 5p)     0.00352       0.74400
   115    S    5  px     Ryd( 4p)     0.00104       0.66201
   116    S    5  px     Ryd( 6p)     0.00014       1.61621
   117    S    5  px     Ryd( 7p)     0.00000      16.98928
   118    S    5  py     Cor( 2p)     0.99997      -5.79621
   119    S    5  py     Val( 3p)     0.74141      -0.11757
   120    S    5  py     Ryd( 5p)     0.00157       0.70748
   121    S    5  py     Ryd( 4p)     0.00030       0.68886
   122    S    5  py     Ryd( 6p)     0.00012       1.91958
   123    S    5  py     Ryd( 7p)     0.00000      16.99016
   124    S    5  pz     Cor( 2p)     0.99998      -5.79581
   125    S    5  pz     Val( 3p)     0.78174      -0.12877
   126    S    5  pz     Ryd( 4p)     0.00247       0.59742
   127    S    5  pz     Ryd( 5p)     0.00074       0.62977
   128    S    5  pz     Ryd( 6p)     0.00019       1.92971
   129    S    5  pz     Ryd( 7p)     0.00000      17.02987
   130    S    5  dxy    Ryd( 3d)     0.00360       1.24449
   131    S    5  dxz    Ryd( 3d)     0.00234       1.09678
   132    S    5  dyz    Ryd( 3d)     0.00163       1.10757
   133    S    5  dx2y2  Ryd( 3d)     0.00162       1.08420
   134    S    5  dz2    Ryd( 3d)     0.00160       1.05341
 
   135    C    6  S      Cor( 1S)     0.99945      -9.99045
   136    C    6  S      Val( 2S)     0.45970      -0.08226
   137    C    6  S      Ryd( 3S)     0.00168       0.83839
   138    C    6  S      Ryd( 4S)     0.00078       1.04794
   139    C    6  S      Ryd( 5S)     0.00001      23.22304
   140    C    6  px     Val( 2p)     0.48139       0.00079
   141    C    6  px     Ryd( 4p)     0.00410       0.99564
   142    C    6  px     Ryd( 3p)     0.00008       0.66204
   143    C    6  px     Ryd( 5p)     0.00007       3.05431
   144    C    6  py     Val( 2p)     0.51305       0.00693
   145    C    6  py     Ryd( 4p)     0.00306       0.90674
   146    C    6  py     Ryd( 3p)     0.00009       0.60611
   147    C    6  py     Ryd( 5p)     0.00008       3.07174
   148    C    6  pz     Val( 2p)     0.49254       0.03399
   149    C    6  pz     Ryd( 4p)     0.00329       0.78134
   150    C    6  pz     Ryd( 3p)     0.00011       0.54809
   151    C    6  pz     Ryd( 5p)     0.00006       3.06946
   152    C    6  dxy    Ryd( 3d)     0.00126       2.03421
   153    C    6  dxz    Ryd( 3d)     0.00061       2.12692
   154    C    6  dyz    Ryd( 3d)     0.00045       2.23829
   155    C    6  dx2y2  Ryd( 3d)     0.00071       2.01220
   156    C    6  dz2    Ryd( 3d)     0.00087       1.85479
 
   157    C    7  S      Cor( 1S)     0.99947      -9.90456
   158    C    7  S      Val( 2S)     0.47389      -0.03522
   159    C    7  S      Ryd( 3S)     0.00114       0.81971
   160    C    7  S      Ryd( 4S)     0.00043       1.10064
   161    C    7  S      Ryd( 5S)     0.00001      23.30676
   162    C    7  px     Val( 2p)     0.56424       0.05394
   163    C    7  px     Ryd( 3p)     0.00192       1.04844
   164    C    7  px     Ryd( 4p)     0.00008       1.16801
   165    C    7  px     Ryd( 5p)     0.00003       2.68603
   166    C    7  py     Val( 2p)     0.52979       0.04012
   167    C    7  py     Ryd( 3p)     0.00170       0.83273
   168    C    7  py     Ryd( 4p)     0.00010       1.03570
   169    C    7  py     Ryd( 5p)     0.00005       2.72425
   170    C    7  pz     Val( 2p)     0.54591       0.03439
   171    C    7  pz     Ryd( 3p)     0.00153       0.91440
   172    C    7  pz     Ryd( 4p)     0.00006       1.04869
   173    C    7  pz     Ryd( 5p)     0.00002       2.64136
   174    C    7  dxy    Ryd( 3d)     0.00026       2.32082
   175    C    7  dxz    Ryd( 3d)     0.00032       2.19938
   176    C    7  dyz    Ryd( 3d)     0.00026       2.31727
   177    C    7  dx2y2  Ryd( 3d)     0.00029       2.25788
   178    C    7  dz2    Ryd( 3d)     0.00022       1.97771
 
   179    C    8  S      Cor( 1S)     0.99957      -9.91311
   180    C    8  S      Val( 2S)     0.46878      -0.03678
   181    C    8  S      Ryd( 4S)     0.00071       0.97372
   182    C    8  S      Ryd( 3S)     0.00005       0.60092
   183    C    8  S      Ryd( 5S)     0.00000      23.43012
   184    C    8  px     Val( 2p)     0.51884       0.06278
   185    C    8  px     Ryd( 4p)     0.00210       0.77273
   186    C    8  px     Ryd( 3p)     0.00025       0.66991
   187    C    8  px     Ryd( 5p)     0.00009       3.10734
   188    C    8  py     Val( 2p)     0.53057       0.04987
   189    C    8  py     Ryd( 4p)     0.00183       0.92039
   190    C    8  py     Ryd( 3p)     0.00042       0.86463
   191    C    8  py     Ryd( 5p)     0.00002       2.92182
   192    C    8  pz     Val( 2p)     0.51213       0.04294
   193    C    8  pz     Ryd( 4p)     0.00156       0.81430
   194    C    8  pz     Ryd( 3p)     0.00030       0.79965
   195    C    8  pz     Ryd( 5p)     0.00003       2.91217
   196    C    8  dxy    Ryd( 3d)     0.00029       2.34336
   197    C    8  dxz    Ryd( 3d)     0.00028       2.27897
   198    C    8  dyz    Ryd( 3d)     0.00036       2.21696
   199    C    8  dx2y2  Ryd( 3d)     0.00031       2.21931
   200    C    8  dz2    Ryd( 3d)     0.00022       1.97037
 
   201    C    9  S      Cor( 1S)     0.99957      -9.91841
   202    C    9  S      Val( 2S)     0.48100      -0.05588
   203    C    9  S      Ryd( 4S)     0.00065       0.89544
   204    C    9  S      Ryd( 3S)     0.00010       0.81277
   205    C    9  S      Ryd( 5S)     0.00000      23.27816
   206    C    9  px     Val( 2p)     0.57325       0.05238
   207    C    9  px     Ryd( 4p)     0.00219       1.02814
   208    C    9  px     Ryd( 3p)     0.00019       0.72553
   209    C    9  px     Ryd( 5p)     0.00003       3.01425
   210    C    9  py     Val( 2p)     0.54792       0.03472
   211    C    9  py     Ryd( 4p)     0.00202       0.80327
   212    C    9  py     Ryd( 3p)     0.00015       0.62837
   213    C    9  py     Ryd( 5p)     0.00003       2.95649
   214    C    9  pz     Val( 2p)     0.53638       0.02900
   215    C    9  pz     Ryd( 4p)     0.00173       0.70989
   216    C    9  pz     Ryd( 3p)     0.00016       0.56500
   217    C    9  pz     Ryd( 5p)     0.00004       2.94059
   218    C    9  dxy    Ryd( 3d)     0.00027       2.26360
   219    C    9  dxz    Ryd( 3d)     0.00024       2.26081
   220    C    9  dyz    Ryd( 3d)     0.00026       2.29786
   221    C    9  dx2y2  Ryd( 3d)     0.00028       2.21725
   222    C    9  dz2    Ryd( 3d)     0.00022       1.95386
 
   223    C   10  S      Cor( 1S)     0.99960      -9.94585
   224    C   10  S      Val( 2S)     0.45272      -0.03157
   225    C   10  S      Ryd( 4S)     0.00110       0.87854
   226    C   10  S      Ryd( 3S)     0.00015       0.59987
   227    C   10  S      Ryd( 5S)     0.00001      23.28793
   228    C   10  px     Val( 2p)     0.48225       0.08012
   229    C   10  px     Ryd( 4p)     0.00415       0.84783
   230    C   10  px     Ryd( 3p)     0.00023       0.77203
   231    C   10  px     Ryd( 5p)     0.00005       2.87795
   232    C   10  py     Val( 2p)     0.48878       0.05695
   233    C   10  py     Ryd( 3p)     0.00353       0.71883
   234    C   10  py     Ryd( 4p)     0.00036       0.73651
   235    C   10  py     Ryd( 5p)     0.00005       2.82647
   236    C   10  pz     Val( 2p)     0.51327       0.03858
   237    C   10  pz     Ryd( 4p)     0.00207       0.75900
   238    C   10  pz     Ryd( 3p)     0.00034       0.75825
   239    C   10  pz     Ryd( 5p)     0.00003       2.78026
   240    C   10  dxy    Ryd( 3d)     0.00057       2.29723
   241    C   10  dxz    Ryd( 3d)     0.00068       2.14332
   242    C   10  dyz    Ryd( 3d)     0.00031       2.29277
   243    C   10  dx2y2  Ryd( 3d)     0.00058       2.21358
   244    C   10  dz2    Ryd( 3d)     0.00029       1.93399
 
   245    N   11  S      Cor( 1S)     0.99964     -13.98696
   246    N   11  S      Val( 2S)     0.67171      -0.37359
   247    N   11  S      Ryd( 4S)     0.00099       1.67278
   248    N   11  S      Ryd( 3S)     0.00006       0.97147
   249    N   11  S      Ryd( 5S)     0.00000      35.42957
   250    N   11  px     Val( 2p)     0.61330      -0.05071
   251    N   11  px     Ryd( 4p)     0.00217       1.11379
   252    N   11  px     Ryd( 3p)     0.00019       1.05747
   253    N   11  px     Ryd( 5p)     0.00004       4.45009
   254    N   11  py     Val( 2p)     0.74061      -0.07855
   255    N   11  py     Ryd( 3p)     0.00354       0.80164
   256    N   11  py     Ryd( 4p)     0.00009       0.99837
   257    N   11  py     Ryd( 5p)     0.00002       3.98082
   258    N   11  pz     Val( 2p)     0.68243      -0.06903
   259    N   11  pz     Ryd( 3p)     0.00211       0.83365
   260    N   11  pz     Ryd( 4p)     0.00013       0.95426
   261    N   11  pz     Ryd( 5p)     0.00002       4.03834
   262    N   11  dxy    Ryd( 3d)     0.00057       2.87760
   263    N   11  dxz    Ryd( 3d)     0.00042       2.80857
   264    N   11  dyz    Ryd( 3d)     0.00068       2.55672
   265    N   11  dx2y2  Ryd( 3d)     0.00049       2.62815
   266    N   11  dz2    Ryd( 3d)     0.00059       2.52441
 
   267    H   12  S      Val( 1S)     0.39100       0.15167
   268    H   12  S      Ryd( 2S)     0.00070       0.41939
   269    H   12  S      Ryd( 4S)     0.00042       1.71917
   270    H   12  S      Ryd( 3S)     0.00005       1.14242
   271    H   12  px     Ryd( 2p)     0.00010       2.30394
   272    H   12  py     Ryd( 2p)     0.00005       1.96435
   273    H   12  pz     Ryd( 2p)     0.00008       2.21656
 
   274    H   13  S      Val( 1S)     0.39643       0.13925
   275    H   13  S      Ryd( 2S)     0.00066       0.42382
   276    H   13  S      Ryd( 3S)     0.00048       1.31128
   277    H   13  S      Ryd( 4S)     0.00003       1.44708
   278    H   13  px     Ryd( 2p)     0.00007       2.15393
   279    H   13  py     Ryd( 2p)     0.00011       2.38504
   280    H   13  pz     Ryd( 2p)     0.00007       1.90154
 
   281    H   14  S      Val( 1S)     0.39148       0.13885
   282    H   14  S      Ryd( 2S)     0.00153       0.35880
   283    H   14  S      Ryd( 3S)     0.00040       1.22089
   284    H   14  S      Ryd( 4S)     0.00003       1.40056
   285    H   14  px     Ryd( 2p)     0.00010       2.18224
   286    H   14  py     Ryd( 2p)     0.00009       2.19785
   287    H   14  pz     Ryd( 2p)     0.00008       2.07375
 
   288    H   15  S      Val( 1S)     0.38708       0.12229
   289    H   15  S      Ryd( 2S)     0.00303       0.31258
   290    H   15  S      Ryd( 4S)     0.00089       1.45041
   291    H   15  S      Ryd( 3S)     0.00003       1.31222
   292    H   15  px     Ryd( 2p)     0.00011       2.29655
   293    H   15  py     Ryd( 2p)     0.00010       1.91468
   294    H   15  pz     Ryd( 2p)     0.00011       2.19330
 
   295    H   16  S      Val( 1S)     0.43010      -0.01694
   296    H   16  S      Ryd( 2S)     0.00229       0.45752
   297    H   16  S      Ryd( 3S)     0.00041       0.71585
   298    H   16  S      Ryd( 4S)     0.00015       1.75308
   299    H   16  px     Ryd( 2p)     0.00090       1.82354
   300    H   16  py     Ryd( 2p)     0.00042       1.68330
   301    H   16  pz     Ryd( 2p)     0.00087       1.77516
 
   302    H   17  S      Val( 1S)     0.38743       0.17603
   303    H   17  S      Ryd( 2S)     0.00054       0.84916
   304    H   17  S      Ryd( 3S)     0.00057       1.15605
   305    H   17  S      Ryd( 4S)     0.00008       1.23162
   306    H   17  px     Ryd( 2p)     0.00019       2.45149
   307    H   17  py     Ryd( 2p)     0.00011       2.01506
   308    H   17  pz     Ryd( 2p)     0.00015       2.24164
 
   309    H   18  S      Val( 1S)     0.40627       0.15285
   310    H   18  S      Ryd( 2S)     0.00059       0.42362
   311    H   18  S      Ryd( 3S)     0.00017       0.70810
   312    H   18  S      Ryd( 4S)     0.00011       1.84969
   313    H   18  px     Ryd( 2p)     0.00007       2.05294
   314    H   18  py     Ryd( 2p)     0.00017       2.38485
   315    H   18  pz     Ryd( 2p)     0.00013       2.16902
 
   316    H   19  S      Val( 1S)     0.40301       0.14901
   317    H   19  S      Ryd( 3S)     0.00061       0.61540
   318    H   19  S      Ryd( 2S)     0.00006       0.33297
   319    H   19  S      Ryd( 4S)     0.00009       2.28661
   320    H   19  px     Ryd( 2p)     0.00020       2.59507
   321    H   19  py     Ryd( 2p)     0.00012       2.10209
   322    H   19  pz     Ryd( 2p)     0.00009       1.89219
 
   323    H   20  S      Val( 1S)     0.41710       0.14196
   324    H   20  S      Ryd( 3S)     0.00067       0.73124
   325    H   20  S      Ryd( 2S)     0.00003       0.24238
   326    H   20  S      Ryd( 4S)     0.00008       2.35587
   327    H   20  px     Ryd( 2p)     0.00018       2.35775
   328    H   20  py     Ryd( 2p)     0.00009       2.01492
   329    H   20  pz     Ryd( 2p)     0.00017       2.20274

 WARNING:  Population inversion found on atom  C    1
           Population inversion found on atom  S    3
           Population inversion found on atom  S    4
           Population inversion found on atom  S    5
           Population inversion found on atom  C    6
           Population inversion found on atom  C    8
           Population inversion found on atom  C    9
           Population inversion found on atom  C   10
           Population inversion found on atom  N   11
           Population inversion found on atom  H   12
           Population inversion found on atom  H   15
           Population inversion found on atom  H   17
           Population inversion found on atom  H   19
           Population inversion found on atom  H   20


 Summary of Natural Population Analysis:                  
                                                          
                                       Natural Population 
                Natural  -----------------------------------------------
    Atom  No    Charge         Core      Valence    Rydberg      Total
 -----------------------------------------------------------------------
      C    1   -0.29797      0.99961     2.28931    0.00905     3.29797
      C    2   -0.23699      0.99960     2.22064    0.01674     3.23699
      S    3   -0.01096      4.99960     2.99445    0.01691     8.01096
      S    4    0.04742      4.99960     2.93025    0.02273     7.95258
      S    5    0.06951      4.99956     2.90618    0.02474     7.93049
      C    6    0.03655      0.99945     1.94667    0.01733     2.96345
      C    7   -0.12172      0.99947     2.11382    0.00844     3.12172
      C    8   -0.03871      0.99957     2.03032    0.00883     3.03871
      C    9   -0.14670      0.99957     2.13855    0.00858     3.14670
      C   10    0.04889      0.99960     1.93702    0.01450     2.95111
      N   11   -0.21979      0.99964     2.70805    0.01210     3.71979
      H   12    0.10758      0.00000     0.39100    0.00142     0.39242
      H   13    0.10214      0.00000     0.39643    0.00143     0.39786
      H   14    0.10629      0.00000     0.39148    0.00224     0.39371
      H   15    0.10865      0.00000     0.38708    0.00427     0.39135
      H   16    0.06487      0.00000     0.43010    0.00503     0.43513
      H   17    0.11093      0.00000     0.38743    0.00164     0.38907
      H   18    0.09250      0.00000     0.40627    0.00122     0.40750
      H   19    0.09585      0.00000     0.40301    0.00115     0.40415
      H   20    0.08168      0.00000     0.41710    0.00122     0.41832
 =======================================================================
   * Total *    0.00000     22.99528    29.82515    0.17957    53.00000

                                 Natural Population      
 --------------------------------------------------------
   Core                      22.99528 ( 99.9795% of  23)
   Valence                   29.82515 ( 99.4172% of  30)
   Natural Minimal Basis     52.82043 ( 99.6612% of  53)
   Natural Rydberg Basis      0.17957 (  0.3388% of  53)
 --------------------------------------------------------

    Atom  No          Natural Electron Configuration
 ----------------------------------------------------------------------------
      C    1      [core]2S( 0.54)2p( 1.75)
      C    2      [core]2S( 0.57)2p( 1.65)3p( 0.01)
      S    3      [core]3S( 0.86)3p( 2.13)3d( 0.01)
      S    4      [core]3S( 0.87)3p( 2.06)3d( 0.01)5p( 0.01)
      S    5      [core]3S( 0.87)3p( 2.04)3d( 0.01)5p( 0.01)
      C    6      [core]2S( 0.46)2p( 1.49)4p( 0.01)
      C    7      [core]2S( 0.47)2p( 1.64)3p( 0.01)
      C    8      [core]2S( 0.47)2p( 1.56)4p( 0.01)
      C    9      [core]2S( 0.48)2p( 1.66)4p( 0.01)
      C   10      [core]2S( 0.45)2p( 1.48)4p( 0.01)
      N   11      [core]2S( 0.67)2p( 2.04)3p( 0.01)
      H   12            1S( 0.39)
      H   13            1S( 0.40)
      H   14            1S( 0.39)
      H   15            1S( 0.39)
      H   16            1S( 0.43)
      H   17            1S( 0.39)
      H   18            1S( 0.41)
      H   19            1S( 0.40)
      H   20            1S( 0.42)


 NBO analysis skipped by request.
 1\1\GINC-NODE108\SP\UB3LYP\6-311++G(d,p)\C7H9N1S3(1-,2)\VSC10255\08-De
 c-2020\0\\# B3LYP/6-311++G(d,p) empiricaldispersion=gd3bj scf=xqc pop=
 npa geom=check\\CID_148889499_JID_1155_Energie_anion\\-1,2\C,0,0.83556
 18511,0.0166893697,0.1602174935\C,0,-0.0186187708,-1.2129258732,-0.113
 502492\S,0,-0.6270134528,-2.0262007731,1.4309112513\S,0,-1.4505088386,
 -0.874542951,-1.2348589473\S,0,-2.4855854216,0.6672646201,-0.312963506
 4\C,0,-3.7469664426,-0.1238084587,0.7069193226\C,0,-4.0203494765,-1.49
 30933554,0.7381482193\C,0,-5.0442219163,-1.9206280057,1.5782866489\C,0
 ,-5.7499643703,-0.9830403374,2.3339895899\C,0,-5.3967466179,0.35888508
 15,2.2102853742\N,0,-4.4113781652,0.7880759957,1.4124900337\H,0,0.2595
 110917,0.7700414059,0.7038393581\H,0,1.1857519889,0.4488759817,-0.7828
 628522\H,0,1.7088405856,-0.2539676684,0.7642339899\H,0,0.5392067876,-1
 .9512692637,-0.6995497788\H,0,0.566950176,-2.0312739584,2.0660305285\H
 ,0,-3.454682286,-2.1907199866,0.1331755553\H,0,-5.2884519757,-2.977424
 3809,1.6392214431\H,0,-6.553248877,-1.2814832958,2.9994867007\H,0,-5.9
 201658693,1.1284858535,2.7736620678\\Version=ES64L-G16RevA.03\State=2-
 A\HF=-1521.6875099\S2=0.752102\S2-1=0.\S2A=0.750003\RMSD=6.729e-09\Dip
 ole=-2.2205823,0.3146502,0.0022908\Quadrupole=-17.6116933,8.5362862,9.
 0754072,10.9882708,0.9716033,-0.462799\PG=C01 [X(C7H9N1S3)]\\@


 MATERIAL COPIED FROM ONE SCHOLARLY BOOK WITHOUT CREDIT COMPRISES PLAGIARISM.
 MATERIAL COPIED FROM TWO SCHOLARLY BOOKS COMPRISES AN ESSAY.
 MATERIAL COPIED FROM THREE SCHOLARLY BOOKS COMPRISES A DISSERTATION.
 MATERIAL COPIED FROM FOUR SCHOLARLY BOOKS COMPRISES A FIFTH SCHOLARLY BOOK.

                               -- C&EN, 25 FEB 1980
 Job cpu time:       0 days  0 hours 23 minutes 35.1 seconds.
 Elapsed time:       0 days  0 hours  5 minutes 57.6 seconds.
 File lengths (MBytes):  RWF=    160 Int=      0 D2E=      0 Chk=     16 Scr=      8
 Normal termination of Gaussian 16 at Tue Dec  8 19:32:17 2020.
