 Entering Gaussian System, Link 0=g16
 Initial command:
 /apps/brussel/CO7/broadwell/software/Gaussian/G16.A.03-intel-2017b/g16/l1.exe "/scratch/brussel/102/vsc10255/3546946[3451].master01.hydra.brussel.vsc/Gau-12234.inp" -scrdir="/scratch/brussel/102/vsc10255/3546946[3451].master01.hydra.brussel.vsc/"
 Entering Link 1 = /apps/brussel/CO7/broadwell/software/Gaussian/G16.A.03-intel-2017b/g16/l1.exe.bin PID=     12235.
  
 Copyright (c) 1988,1990,1992,1993,1995,1998,2003,2009,2016,
            Gaussian, Inc.  All Rights Reserved.
  
 This is part of the Gaussian(R) 16 program.  It is based on
 the Gaussian(R) 09 system (copyright 2009, Gaussian, Inc.),
 the Gaussian(R) 03 system (copyright 2003, Gaussian, Inc.),
 the Gaussian(R) 98 system (copyright 1998, Gaussian, Inc.),
 the Gaussian(R) 94 system (copyright 1995, Gaussian, Inc.),
 the Gaussian 92(TM) system (copyright 1992, Gaussian, Inc.),
 the Gaussian 90(TM) system (copyright 1990, Gaussian, Inc.),
 the Gaussian 88(TM) system (copyright 1988, Gaussian, Inc.),
 the Gaussian 86(TM) system (copyright 1986, Carnegie Mellon
 University), and the Gaussian 82(TM) system (copyright 1983,
 Carnegie Mellon University). Gaussian is a federally registered
 trademark of Gaussian, Inc.
  
 This software contains proprietary and confidential information,
 including trade secrets, belonging to Gaussian, Inc.
  
 This software is provided under written license and may be
 used, copied, transmitted, or stored only in accord with that
 written license.
  
 The following legend is applicable only to US Government
 contracts under FAR:
  
                    RESTRICTED RIGHTS LEGEND
  
 Use, reproduction and disclosure by the US Government is
 subject to restrictions as set forth in subparagraphs (a)
 and (c) of the Commercial Computer Software - Restricted
 Rights clause in FAR 52.227-19.
  
 Gaussian, Inc.
 340 Quinnipiac St., Bldg. 40, Wallingford CT 06492
  
  
 ---------------------------------------------------------------
 Warning -- This program may not be used in any manner that
 competes with the business of Gaussian, Inc. or will provide
 assistance to any competitor of Gaussian, Inc.  The licensee
 of this program is prohibited from giving any competitor of
 Gaussian, Inc. access to this program.  By using this program,
 the user acknowledges that Gaussian, Inc. is engaged in the
 business of creating and licensing software in the field of
 computational chemistry and represents and warrants to the
 licensee that it is not a competitor of Gaussian, Inc. and that
 it will not use this program in any manner prohibited above.
 ---------------------------------------------------------------
  

 Cite this work as:
 Gaussian 16, Revision A.03,
 M. J. Frisch, G. W. Trucks, H. B. Schlegel, G. E. Scuseria, 
 M. A. Robb, J. R. Cheeseman, G. Scalmani, V. Barone, 
 G. A. Petersson, H. Nakatsuji, X. Li, M. Caricato, A. V. Marenich, 
 J. Bloino, B. G. Janesko, R. Gomperts, B. Mennucci, H. P. Hratchian, 
 J. V. Ortiz, A. F. Izmaylov, J. L. Sonnenberg, D. Williams-Young, 
 F. Ding, F. Lipparini, F. Egidi, J. Goings, B. Peng, A. Petrone, 
 T. Henderson, D. Ranasinghe, V. G. Zakrzewski, J. Gao, N. Rega, 
 G. Zheng, W. Liang, M. Hada, M. Ehara, K. Toyota, R. Fukuda, 
 J. Hasegawa, M. Ishida, T. Nakajima, Y. Honda, O. Kitao, H. Nakai, 
 T. Vreven, K. Throssell, J. A. Montgomery, Jr., J. E. Peralta, 
 F. Ogliaro, M. J. Bearpark, J. J. Heyd, E. N. Brothers, K. N. Kudin, 
 V. N. Staroverov, T. A. Keith, R. Kobayashi, J. Normand, 
 K. Raghavachari, A. P. Rendell, J. C. Burant, S. S. Iyengar, 
 J. Tomasi, M. Cossi, J. M. Millam, M. Klene, C. Adamo, R. Cammi, 
 J. W. Ochterski, R. L. Martin, K. Morokuma, O. Farkas, 
 J. B. Foresman, and D. J. Fox, Gaussian, Inc., Wallingford CT, 2016.
 
 ******************************************
 Gaussian 16:  ES64L-G16RevA.03 25-Dec-2016
                 9-Dec-2020 
 ******************************************
 %chk=JID_3451.chk
 %mem=8GB
 %nprocshared=4
 Will use up to    4 processors via shared memory.
 -----------------------------------------------------------
 # opt freq B3LYP/6-31G(d) empiricaldispersion=gd3bj scf=xqc
 -----------------------------------------------------------
 1/18=20,19=15,26=3,38=1/1,3;
 2/9=110,12=2,17=6,18=5,40=1/2;
 3/5=1,6=6,7=1,11=2,25=1,30=1,71=1,74=-5,124=41/1,2,3;
 4//1;
 5/5=2,8=3,13=1,38=5/2,8;
 6/7=2,8=2,9=2,10=2,28=1/1;
 7//1,2,3,16;
 1/18=20,19=15,26=3/3(2);
 2/9=110/2;
 99//99;
 2/9=110/2;
 3/5=1,6=6,7=1,11=2,25=1,30=1,71=1,74=-5,124=41/1,2,3;
 4/5=5,16=3,69=1/1;
 5/5=2,8=3,13=1,38=5/2,8;
 7//1,2,3,16;
 1/18=20,19=15,26=3/3(-5);
 2/9=110/2;
 6/7=2,8=2,9=2,10=2,19=2,28=1/1;
 99/9=1/99;
 ------------------------------
 CID_73023141_JID_3451_neutraal
 ------------------------------
 Symbolic Z-matrix:
 Charge =  0 Multiplicity = 1
 C                     1.852     1.011    -0.731 
 C                     2.53854   0.06073   0.26014 
 C                     1.80868  -1.29722   0.2921 
 C                     0.34673  -1.05244   0.71121 
 C                    -0.34776  -0.14607  -0.32582 
 C                     0.66687   0.297    -1.40755 
 C                     1.21713  -0.94336  -2.13924 
 C                     1.81531  -1.92334  -1.11788 
 O                     3.14541  -2.24621  -1.5085 
 O                    -0.88806   1.00404   0.34608 
 C                    -2.22054   1.12348  -0.14765 
 C                    -2.61256  -0.30188  -0.41575 
 O                    -1.42008  -0.87336  -0.95098 
 H                     1.5147    1.91482  -0.21046 
 H                     2.57531   1.34147  -1.48633 
 H                     3.58954  -0.07442  -0.0211 
 H                     2.54106   0.5106    1.26037 
 H                     2.30917  -1.95844   1.00842 
 H                     0.32716  -0.59279   1.70714 
 H                    -0.17175  -2.01554   0.7949 
 H                     0.19117   0.97144  -2.12888 
 H                     0.41188  -1.43976  -2.69392 
 H                     1.96276  -0.64195  -2.88539 
 H                     1.23988  -2.85661  -1.12276 
 H                     3.49299  -2.88496  -0.86286 
 H                    -2.19226   1.71573  -1.06864 
 H                    -2.8621    1.62065   0.58383 
 H                    -3.44035  -0.40011  -1.12212 
 H                    -2.8589   -0.83386   0.50953 
 

 GradGradGradGradGradGradGradGradGradGradGradGradGradGradGradGradGradGrad
 Berny optimization.
 Initialization pass.
                           ----------------------------
                           !    Initial Parameters    !
                           ! (Angstroms and Degrees)  !
 --------------------------                            --------------------------
 ! Name  Definition              Value          Derivative Info.                !
 --------------------------------------------------------------------------------
 ! R1    R(1,2)                  1.5352         estimate D2E/DX2                !
 ! R2    R(1,6)                  1.5401         estimate D2E/DX2                !
 ! R3    R(1,14)                 1.0962         estimate D2E/DX2                !
 ! R4    R(1,15)                 1.0968         estimate D2E/DX2                !
 ! R5    R(2,3)                  1.542          estimate D2E/DX2                !
 ! R6    R(2,16)                 1.0963         estimate D2E/DX2                !
 ! R7    R(2,17)                 1.0967         estimate D2E/DX2                !
 ! R8    R(3,4)                  1.5404         estimate D2E/DX2                !
 ! R9    R(3,8)                  1.5428         estimate D2E/DX2                !
 ! R10   R(3,18)                 1.0958         estimate D2E/DX2                !
 ! R11   R(4,5)                  1.5425         estimate D2E/DX2                !
 ! R12   R(4,19)                 1.0971         estimate D2E/DX2                !
 ! R13   R(4,20)                 1.097          estimate D2E/DX2                !
 ! R14   R(5,6)                  1.5479         estimate D2E/DX2                !
 ! R15   R(5,10)                 1.4374         estimate D2E/DX2                !
 ! R16   R(5,13)                 1.4386         estimate D2E/DX2                !
 ! R17   R(6,7)                  1.5416         estimate D2E/DX2                !
 ! R18   R(6,21)                 1.0961         estimate D2E/DX2                !
 ! R19   R(7,8)                  1.5367         estimate D2E/DX2                !
 ! R20   R(7,22)                 1.0966         estimate D2E/DX2                !
 ! R21   R(7,23)                 1.0971         estimate D2E/DX2                !
 ! R22   R(8,9)                  1.4234         estimate D2E/DX2                !
 ! R23   R(8,24)                 1.0964         estimate D2E/DX2                !
 ! R24   R(9,25)                 0.9725         estimate D2E/DX2                !
 ! R25   R(10,11)                1.426          estimate D2E/DX2                !
 ! R26   R(11,12)                1.5024         estimate D2E/DX2                !
 ! R27   R(11,26)                1.0953         estimate D2E/DX2                !
 ! R28   R(11,27)                1.0926         estimate D2E/DX2                !
 ! R29   R(12,13)                1.4266         estimate D2E/DX2                !
 ! R30   R(12,28)                1.0926         estimate D2E/DX2                !
 ! R31   R(12,29)                1.0954         estimate D2E/DX2                !
 ! A1    A(2,1,6)              109.9237         estimate D2E/DX2                !
 ! A2    A(2,1,14)             109.9622         estimate D2E/DX2                !
 ! A3    A(2,1,15)             109.6465         estimate D2E/DX2                !
 ! A4    A(6,1,14)             110.7358         estimate D2E/DX2                !
 ! A5    A(6,1,15)             110.1595         estimate D2E/DX2                !
 ! A6    A(14,1,15)            106.3512         estimate D2E/DX2                !
 ! A7    A(1,2,3)              110.2936         estimate D2E/DX2                !
 ! A8    A(1,2,16)             109.8405         estimate D2E/DX2                !
 ! A9    A(1,2,17)             109.6292         estimate D2E/DX2                !
 ! A10   A(3,2,16)             110.5181         estimate D2E/DX2                !
 ! A11   A(3,2,17)             110.085          estimate D2E/DX2                !
 ! A12   A(16,2,17)            106.3984         estimate D2E/DX2                !
 ! A13   A(2,3,4)              108.3556         estimate D2E/DX2                !
 ! A14   A(2,3,8)              109.6594         estimate D2E/DX2                !
 ! A15   A(2,3,18)             109.1931         estimate D2E/DX2                !
 ! A16   A(4,3,8)              108.4954         estimate D2E/DX2                !
 ! A17   A(4,3,18)             110.5788         estimate D2E/DX2                !
 ! A18   A(8,3,18)             110.5224         estimate D2E/DX2                !
 ! A19   A(3,4,5)              109.7406         estimate D2E/DX2                !
 ! A20   A(3,4,19)             109.2994         estimate D2E/DX2                !
 ! A21   A(3,4,20)             109.2573         estimate D2E/DX2                !
 ! A22   A(5,4,19)             110.8614         estimate D2E/DX2                !
 ! A23   A(5,4,20)             110.7552         estimate D2E/DX2                !
 ! A24   A(19,4,20)            106.8673         estimate D2E/DX2                !
 ! A25   A(4,5,6)              110.0542         estimate D2E/DX2                !
 ! A26   A(4,5,10)             108.9737         estimate D2E/DX2                !
 ! A27   A(4,5,13)             109.311          estimate D2E/DX2                !
 ! A28   A(6,5,10)             110.1226         estimate D2E/DX2                !
 ! A29   A(6,5,13)             109.2455         estimate D2E/DX2                !
 ! A30   A(10,5,13)            109.1142         estimate D2E/DX2                !
 ! A31   A(1,6,5)              109.2757         estimate D2E/DX2                !
 ! A32   A(1,6,7)              107.8681         estimate D2E/DX2                !
 ! A33   A(1,6,21)             109.7416         estimate D2E/DX2                !
 ! A34   A(5,6,7)              109.5938         estimate D2E/DX2                !
 ! A35   A(5,6,21)             110.5817         estimate D2E/DX2                !
 ! A36   A(7,6,21)             109.732          estimate D2E/DX2                !
 ! A37   A(6,7,8)              109.6689         estimate D2E/DX2                !
 ! A38   A(6,7,22)             110.0098         estimate D2E/DX2                !
 ! A39   A(6,7,23)             110.1418         estimate D2E/DX2                !
 ! A40   A(8,7,22)             109.4731         estimate D2E/DX2                !
 ! A41   A(8,7,23)             111.2658         estimate D2E/DX2                !
 ! A42   A(22,7,23)            106.2262         estimate D2E/DX2                !
 ! A43   A(3,8,7)              110.3015         estimate D2E/DX2                !
 ! A44   A(3,8,9)              110.2971         estimate D2E/DX2                !
 ! A45   A(3,8,24)             110.3202         estimate D2E/DX2                !
 ! A46   A(7,8,9)              109.0272         estimate D2E/DX2                !
 ! A47   A(7,8,24)             109.6076         estimate D2E/DX2                !
 ! A48   A(9,8,24)             107.2254         estimate D2E/DX2                !
 ! A49   A(8,9,25)             107.5053         estimate D2E/DX2                !
 ! A50   A(5,10,11)            104.8569         estimate D2E/DX2                !
 ! A51   A(10,11,12)           103.0696         estimate D2E/DX2                !
 ! A52   A(10,11,26)           108.1966         estimate D2E/DX2                !
 ! A53   A(10,11,27)           110.792          estimate D2E/DX2                !
 ! A54   A(12,11,26)           111.6949         estimate D2E/DX2                !
 ! A55   A(12,11,27)           113.4497         estimate D2E/DX2                !
 ! A56   A(26,11,27)           109.3922         estimate D2E/DX2                !
 ! A57   A(11,12,13)           103.2321         estimate D2E/DX2                !
 ! A58   A(11,12,28)           113.4744         estimate D2E/DX2                !
 ! A59   A(11,12,29)           111.6356         estimate D2E/DX2                !
 ! A60   A(13,12,28)           110.7768         estimate D2E/DX2                !
 ! A61   A(13,12,29)           108.0812         estimate D2E/DX2                !
 ! A62   A(28,12,29)           109.3936         estimate D2E/DX2                !
 ! A63   A(5,13,12)            104.9224         estimate D2E/DX2                !
 ! D1    D(6,1,2,3)             -1.3019         estimate D2E/DX2                !
 ! D2    D(6,1,2,16)           120.7514         estimate D2E/DX2                !
 ! D3    D(6,1,2,17)          -122.6756         estimate D2E/DX2                !
 ! D4    D(14,1,2,3)           120.861          estimate D2E/DX2                !
 ! D5    D(14,1,2,16)         -117.0856         estimate D2E/DX2                !
 ! D6    D(14,1,2,17)           -0.5127         estimate D2E/DX2                !
 ! D7    D(15,1,2,3)          -122.5425         estimate D2E/DX2                !
 ! D8    D(15,1,2,16)           -0.4892         estimate D2E/DX2                !
 ! D9    D(15,1,2,17)          116.0838         estimate D2E/DX2                !
 ! D10   D(2,1,6,5)             59.7009         estimate D2E/DX2                !
 ! D11   D(2,1,6,7)            -59.3778         estimate D2E/DX2                !
 ! D12   D(2,1,6,21)          -178.8876         estimate D2E/DX2                !
 ! D13   D(14,1,6,5)           -62.0017         estimate D2E/DX2                !
 ! D14   D(14,1,6,7)           178.9196         estimate D2E/DX2                !
 ! D15   D(14,1,6,21)           59.4098         estimate D2E/DX2                !
 ! D16   D(15,1,6,5)          -179.3666         estimate D2E/DX2                !
 ! D17   D(15,1,6,7)            61.5547         estimate D2E/DX2                !
 ! D18   D(15,1,6,21)          -57.9551         estimate D2E/DX2                !
 ! D19   D(1,2,3,4)            -59.1601         estimate D2E/DX2                !
 ! D20   D(1,2,3,8)             59.0989         estimate D2E/DX2                !
 ! D21   D(1,2,3,18)          -179.6664         estimate D2E/DX2                !
 ! D22   D(16,2,3,4)           179.1875         estimate D2E/DX2                !
 ! D23   D(16,2,3,8)           -62.5535         estimate D2E/DX2                !
 ! D24   D(16,2,3,18)           58.6812         estimate D2E/DX2                !
 ! D25   D(17,2,3,4)            61.9423         estimate D2E/DX2                !
 ! D26   D(17,2,3,8)          -179.7988         estimate D2E/DX2                !
 ! D27   D(17,2,3,18)          -58.564          estimate D2E/DX2                !
 ! D28   D(2,3,4,5)             61.617          estimate D2E/DX2                !
 ! D29   D(2,3,4,19)           -60.1546         estimate D2E/DX2                !
 ! D30   D(2,3,4,20)          -176.7696         estimate D2E/DX2                !
 ! D31   D(8,3,4,5)            -57.3795         estimate D2E/DX2                !
 ! D32   D(8,3,4,19)          -179.151          estimate D2E/DX2                !
 ! D33   D(8,3,4,20)            64.2339         estimate D2E/DX2                !
 ! D34   D(18,3,4,5)          -178.7423         estimate D2E/DX2                !
 ! D35   D(18,3,4,19)           59.4861         estimate D2E/DX2                !
 ! D36   D(18,3,4,20)          -57.1289         estimate D2E/DX2                !
 ! D37   D(2,3,8,7)            -54.8987         estimate D2E/DX2                !
 ! D38   D(2,3,8,9)             65.5952         estimate D2E/DX2                !
 ! D39   D(2,3,8,24)          -176.1332         estimate D2E/DX2                !
 ! D40   D(4,3,8,7)             63.2734         estimate D2E/DX2                !
 ! D41   D(4,3,8,9)           -176.2326         estimate D2E/DX2                !
 ! D42   D(4,3,8,24)           -57.9611         estimate D2E/DX2                !
 ! D43   D(18,3,8,7)          -175.3291         estimate D2E/DX2                !
 ! D44   D(18,3,8,9)           -54.8351         estimate D2E/DX2                !
 ! D45   D(18,3,8,24)           63.4364         estimate D2E/DX2                !
 ! D46   D(3,4,5,6)             -3.4239         estimate D2E/DX2                !
 ! D47   D(3,4,5,10)          -124.2733         estimate D2E/DX2                !
 ! D48   D(3,4,5,13)           116.5579         estimate D2E/DX2                !
 ! D49   D(19,4,5,6)           117.4086         estimate D2E/DX2                !
 ! D50   D(19,4,5,10)           -3.4408         estimate D2E/DX2                !
 ! D51   D(19,4,5,13)         -122.6096         estimate D2E/DX2                !
 ! D52   D(20,4,5,6)          -124.1353         estimate D2E/DX2                !
 ! D53   D(20,4,5,10)          115.0153         estimate D2E/DX2                !
 ! D54   D(20,4,5,13)           -4.1536         estimate D2E/DX2                !
 ! D55   D(4,5,6,1)            -57.0276         estimate D2E/DX2                !
 ! D56   D(4,5,6,7)             60.9752         estimate D2E/DX2                !
 ! D57   D(4,5,6,21)          -177.9288         estimate D2E/DX2                !
 ! D58   D(10,5,6,1)            63.1294         estimate D2E/DX2                !
 ! D59   D(10,5,6,7)          -178.8679         estimate D2E/DX2                !
 ! D60   D(10,5,6,21)          -57.7718         estimate D2E/DX2                !
 ! D61   D(13,5,6,1)          -177.049          estimate D2E/DX2                !
 ! D62   D(13,5,6,7)           -59.0463         estimate D2E/DX2                !
 ! D63   D(13,5,6,21)           62.0498         estimate D2E/DX2                !
 ! D64   D(4,5,10,11)         -132.6537         estimate D2E/DX2                !
 ! D65   D(6,5,10,11)          106.5388         estimate D2E/DX2                !
 ! D66   D(13,5,10,11)         -13.3623         estimate D2E/DX2                !
 ! D67   D(4,5,13,12)          107.5092         estimate D2E/DX2                !
 ! D68   D(6,5,13,12)         -132.0135         estimate D2E/DX2                !
 ! D69   D(10,5,13,12)         -11.5726         estimate D2E/DX2                !
 ! D70   D(1,6,7,8)             63.5544         estimate D2E/DX2                !
 ! D71   D(1,6,7,22)          -175.9861         estimate D2E/DX2                !
 ! D72   D(1,6,7,23)           -59.2218         estimate D2E/DX2                !
 ! D73   D(5,6,7,8)            -55.3216         estimate D2E/DX2                !
 ! D74   D(5,6,7,22)            65.1379         estimate D2E/DX2                !
 ! D75   D(5,6,7,23)          -178.0978         estimate D2E/DX2                !
 ! D76   D(21,6,7,8)          -176.9296         estimate D2E/DX2                !
 ! D77   D(21,6,7,22)          -56.4701         estimate D2E/DX2                !
 ! D78   D(21,6,7,23)           60.2941         estimate D2E/DX2                !
 ! D79   D(6,7,8,3)             -5.8137         estimate D2E/DX2                !
 ! D80   D(6,7,8,9)           -127.0666         estimate D2E/DX2                !
 ! D81   D(6,7,8,24)           115.8441         estimate D2E/DX2                !
 ! D82   D(22,7,8,3)          -126.5986         estimate D2E/DX2                !
 ! D83   D(22,7,8,9)           112.1485         estimate D2E/DX2                !
 ! D84   D(22,7,8,24)           -4.9408         estimate D2E/DX2                !
 ! D85   D(23,7,8,3)           116.2942         estimate D2E/DX2                !
 ! D86   D(23,7,8,9)            -4.9587         estimate D2E/DX2                !
 ! D87   D(23,7,8,24)         -122.048          estimate D2E/DX2                !
 ! D88   D(3,8,9,25)            60.3116         estimate D2E/DX2                !
 ! D89   D(7,8,9,25)          -178.4328         estimate D2E/DX2                !
 ! D90   D(24,8,9,25)          -59.8415         estimate D2E/DX2                !
 ! D91   D(5,10,11,12)          31.5431         estimate D2E/DX2                !
 ! D92   D(5,10,11,26)         -86.8673         estimate D2E/DX2                !
 ! D93   D(5,10,11,27)         153.2203         estimate D2E/DX2                !
 ! D94   D(10,11,12,13)        -39.0406         estimate D2E/DX2                !
 ! D95   D(10,11,12,28)       -159.0008         estimate D2E/DX2                !
 ! D96   D(10,11,12,29)         76.825          estimate D2E/DX2                !
 ! D97   D(26,11,12,13)         76.8964         estimate D2E/DX2                !
 ! D98   D(26,11,12,28)        -43.0638         estimate D2E/DX2                !
 ! D99   D(26,11,12,29)       -167.2381         estimate D2E/DX2                !
 ! D100  D(27,11,12,13)       -158.9032         estimate D2E/DX2                !
 ! D101  D(27,11,12,28)         81.1366         estimate D2E/DX2                !
 ! D102  D(27,11,12,29)        -43.0376         estimate D2E/DX2                !
 ! D103  D(11,12,13,5)          30.4841         estimate D2E/DX2                !
 ! D104  D(28,12,13,5)         152.2787         estimate D2E/DX2                !
 ! D105  D(29,12,13,5)         -87.8885         estimate D2E/DX2                !
 --------------------------------------------------------------------------------
 Trust Radius=3.00D-01 FncErr=1.00D-07 GrdErr=1.00D-06 EigMax=2.50D+02 EigMin=1.00D-04
 Number of steps in this run=    174 maximum allowed number of steps=    174.
 GradGradGradGradGradGradGradGradGradGradGradGradGradGradGradGradGradGrad

                          Input orientation:                          
 ---------------------------------------------------------------------
 Center     Atomic      Atomic             Coordinates (Angstroms)
 Number     Number       Type             X           Y           Z
 ---------------------------------------------------------------------
      1          6           0        1.852000    1.011000   -0.731000
      2          6           0        2.538540    0.060730    0.260140
      3          6           0        1.808680   -1.297220    0.292100
      4          6           0        0.346730   -1.052440    0.711210
      5          6           0       -0.347760   -0.146070   -0.325820
      6          6           0        0.666870    0.297000   -1.407550
      7          6           0        1.217130   -0.943360   -2.139240
      8          6           0        1.815310   -1.923340   -1.117880
      9          8           0        3.145410   -2.246210   -1.508500
     10          8           0       -0.888060    1.004040    0.346080
     11          6           0       -2.220540    1.123480   -0.147650
     12          6           0       -2.612560   -0.301880   -0.415750
     13          8           0       -1.420080   -0.873360   -0.950980
     14          1           0        1.514700    1.914820   -0.210460
     15          1           0        2.575310    1.341470   -1.486330
     16          1           0        3.589540   -0.074420   -0.021100
     17          1           0        2.541060    0.510600    1.260370
     18          1           0        2.309170   -1.958440    1.008420
     19          1           0        0.327160   -0.592790    1.707140
     20          1           0       -0.171750   -2.015540    0.794900
     21          1           0        0.191170    0.971440   -2.128880
     22          1           0        0.411880   -1.439760   -2.693920
     23          1           0        1.962760   -0.641950   -2.885390
     24          1           0        1.239880   -2.856610   -1.122760
     25          1           0        3.492990   -2.884960   -0.862860
     26          1           0       -2.192260    1.715730   -1.068640
     27          1           0       -2.862100    1.620650    0.583830
     28          1           0       -3.440350   -0.400110   -1.122120
     29          1           0       -2.858900   -0.833860    0.509530
 ---------------------------------------------------------------------
                    Distance matrix (angstroms):
                    1          2          3          4          5
     1  C    0.000000
     2  C    1.535158   0.000000
     3  C    2.525171   1.541994   0.000000
     4  C    2.933188   2.499328   1.540412   0.000000
     5  C    2.518318   2.952430   2.521350   1.542483   0.000000
     6  C    1.540146   2.517968   2.595010   2.532316   1.547878
     7  C    2.491129   2.917421   2.527165   2.982375   2.524489
     8  C    2.959962   2.521613   1.542762   2.502152   2.909453
     9  O    3.589823   2.969571   2.435075   3.766273   4.244002
    10  O    2.944160   3.555110   3.545577   2.426342   1.437403
    11  C    4.115645   4.893319   4.720994   3.473204   2.269539
    12  C    4.664261   5.207893   4.586842   3.254347   2.271934
    13  O    3.782289   4.243820   3.485656   2.432399   1.438626
    14  H    1.096186   2.169646   3.264382   3.319377   2.780168
    15  H    1.096773   2.166057   3.273106   3.940375   3.479066
    16  H    2.168211   1.096340   2.182841   3.465345   3.949724
    17  H    2.165816   1.096745   2.177646   2.749501   3.360431
    18  H    3.471622   2.165544   1.095818   2.181820   3.481976
    19  H    3.292690   2.722333   2.166440   1.097059   2.188150
    20  H    3.947642   3.455798   2.165847   1.096990   2.186758
    21  H    2.171172   3.470872   3.691111   3.490903   2.188675
    22  H    3.454450   3.937083   3.299649   3.427706   2.803317
    23  H    2.717703   3.274086   3.248009   3.964289   3.483647
    24  H    3.935298   3.479914   2.181068   2.723269   3.240793
    25  H    4.229508   3.293811   2.586842   3.966709   4.747767
    26  H    4.119063   5.185089   5.190087   4.156573   2.724016
    27  H    4.931855   5.630723   5.515003   4.178304   3.204788
    28  H    5.491191   6.153872   5.509731   4.257770   3.203552
    29  H    5.209127   5.476755   4.695560   3.219397   2.734353
                    6          7          8          9         10
     6  C    0.000000
     7  C    1.541638   0.000000
     8  C    2.516492   1.536671   0.000000
     9  O    3.552642   2.411123   1.423375   0.000000
    10  O    2.448046   3.794866   4.245108   5.502043   0.000000
    11  C    3.256924   4.478374   5.149033   6.480752   1.426022
    12  C    3.478072   4.248346   4.767405   6.174847   2.293406
    13  O    2.435890   2.893396   3.405593   4.799921   2.343084
    14  H    2.183846   3.460915   3.955408   4.653847   2.629166
    15  H    2.176986   2.737041   3.372290   3.632761   3.932749
    16  H    3.256101   3.296954   2.787351   2.669510   4.620260
    17  H    3.267416   3.927358   3.479490   3.953717   3.583054
    18  H    3.690673   3.482916   2.183181   2.667770   4.408771
    19  H    3.257057   3.963532   3.459146   4.584394   2.424688
    20  H    3.301804   3.418733   2.759644   4.045048   3.135666
    21  H    1.096119   2.172363   3.469828   4.411992   2.700227
    22  H    2.176259   1.096590   2.165033   3.086708   4.111399
    23  H    2.178295   1.097065   2.188103   2.422424   4.612901
    24  H    3.217872   2.166627   1.096420   2.037751   4.646530
    25  H    4.290514   3.252460   1.950476   0.972453   5.981593
    26  H    3.209716   4.454311   5.413490   6.661919   2.051554
    27  H    4.262778   5.534381   6.110143   7.444503   2.081722
    28  H    4.175726   4.798101   5.471948   6.850519   3.262121
    29  H    4.169544   4.862303   5.067906   6.489909   2.699778
                   11         12         13         14         15
    11  C    0.000000
    12  C    1.502401   0.000000
    13  O    2.296398   1.426558   0.000000
    14  H    3.818662   4.689369   4.115246   0.000000
    15  H    4.983950   5.546236   4.599480   1.755411   0.000000
    16  H    5.933634   6.218805   5.157448   2.880607   2.276029
    17  H    5.003097   5.479900   4.742999   2.277848   2.869822
    18  H    5.599375   5.384782   4.350167   4.137511   4.145361
    19  H    3.588399   3.637753   3.193301   3.372766   4.358187
    20  H    3.865150   3.218673   2.431255   4.393472   4.901007
    21  H    3.124857   3.523785   2.717878   2.514365   2.496781
    22  H    4.470271   3.953741   2.591279   4.317058   3.724774
    23  H    5.302072   5.210405   3.903729   3.727342   2.503306
    24  H    5.363438   4.676302   3.322375   4.865631   4.420343
    25  H    7.015949   6.644543   5.309666   5.232317   4.369618
    26  H    1.095346   2.161867   2.704347   3.810205   4.800444
    27  H    1.092630   2.181181   3.264223   4.458005   5.824855
    28  H    2.181480   1.092632   2.082005   5.544596   6.273270
    29  H    2.161150   1.095367   2.050574   5.215554   6.184348
                   16         17         18         19         20
    16  H    0.000000
    17  H    1.756054   0.000000
    18  H    2.499758   2.492671   0.000000
    19  H    3.728089   2.513648   2.506307   0.000000
    20  H    4.310581   3.735958   2.490746   1.762189   0.000000
    21  H    4.133458   4.149864   4.786729   4.144920   4.195504
    22  H    4.371000   4.896297   4.192381   4.482618   3.583854
    23  H    3.342553   4.341673   4.124912   4.875340   4.470729
    24  H    3.804621   4.325561   2.547944   3.737148   2.525375
    25  H    2.935476   4.116322   2.400325   4.677758   4.115140
    26  H    6.142572   5.411187   6.170622   4.402465   4.634395
    27  H    6.697974   5.557342   6.303348   4.041351   4.528180
    28  H    7.123038   6.502532   6.326498   4.715503   4.119263
    29  H    6.514652   5.615238   5.312487   3.412237   2.949335
                   21         22         23         24         25
    21  H    0.000000
    22  H    2.486336   0.000000
    23  H    2.512741   1.754534   0.000000
    24  H    4.094635   2.271914   2.921325   0.000000
    25  H    5.232269   3.864534   3.385753   2.268228   0.000000
    26  H    2.712714   4.402295   5.111108   5.717413   7.316472
    27  H    4.135544   5.552360   6.358783   6.307499   7.923421
    28  H    4.010318   4.288485   5.688691   5.285730   7.369729
    29  H    4.418511   4.618139   5.900061   4.853441   6.814468
                   26         27         28         29
    26  H    0.000000
    27  H    1.785604   0.000000
    28  H    2.457106   2.707048   0.000000
    29  H    3.071716   2.455636   1.785639   0.000000
 Stoichiometry    C10H16O3
 Framework group  C1[X(C10H16O3)]
 Deg. of freedom    81
 Full point group                 C1      NOp   1
 Largest Abelian subgroup         C1      NOp   1
 Largest concise Abelian subgroup C1      NOp   1
                         Standard orientation:                         
 ---------------------------------------------------------------------
 Center     Atomic      Atomic             Coordinates (Angstroms)
 Number     Number       Type             X           Y           Z
 ---------------------------------------------------------------------
      1          6           0        0.808985    1.633520   -0.831941
      2          6           0        1.642539    1.519723    0.452172
      3          6           0        1.445022    0.132959    1.096857
      4          6           0       -0.051849   -0.046092    1.413379
      5          6           0       -0.870780    0.009352    0.107419
      6          6           0        0.060964    0.312364   -1.090898
      7          6           0        1.111729   -0.807718   -1.224910
      8          6           0        1.869917   -0.967107    0.102155
      9          8           0        3.268619   -0.890886   -0.150470
     10          8           0       -1.871983    1.033793    0.226746
     11          6           0       -3.077374    0.421620   -0.226923
     12          6           0       -2.896790   -1.017028    0.166636
     13          8           0       -1.516960   -1.258626   -0.103121
     14          1           0        0.103934    2.468640   -0.747667
     15          1           0        1.465817    1.868175   -1.678357
     16          1           0        2.701364    1.690518    0.224842
     17          1           0        1.345775    2.307562    1.155088
     18          1           0        2.042369    0.073488    2.013621
     19          1           0       -0.371905    0.739660    2.108862
     20          1           0       -0.201223   -1.004633    1.925505
     21          1           0       -0.517456    0.390103   -2.018726
     22          1           0        0.620723   -1.754111   -1.481356
     23          1           0        1.798224   -0.584805   -2.051098
     24          1           0        1.669665   -1.959356    0.523435
     25          1           0        3.726487   -1.019178    0.697801
     26          1           0       -3.132857    0.540008   -1.314437
     27          1           0       -3.948887    0.892443    0.234196
     28          1           0       -3.528719   -1.705687   -0.399278
     29          1           0       -3.064884   -1.166630    1.238641
 ---------------------------------------------------------------------
 Rotational constants (GHZ):           1.6895473           0.6244087           0.5764213
 Standard basis: 6-31G(d) (6D, 7F)
 There are   227 symmetry adapted cartesian basis functions of A   symmetry.
 There are   227 symmetry adapted basis functions of A   symmetry.
   227 basis functions,   428 primitive gaussians,   227 cartesian basis functions
    50 alpha electrons       50 beta electrons
       nuclear repulsion energy       920.4449513220 Hartrees.
 NAtoms=   29 NActive=   29 NUniq=   29 SFac= 1.00D+00 NAtFMM=   60 NAOKFM=F Big=F
 Integral buffers will be    131072 words long.
 Raffenetti 2 integral format.
 Two-electron integral symmetry is turned on.
 Nuclear repulsion after empirical dispersion term =      920.3893467987 Hartrees.
 One-electron integrals computed using PRISM.
 NBasis=   227 RedAO= T EigKep=  1.17D-03  NBF=   227
 NBsUse=   227 1.00D-06 EigRej= -1.00D+00 NBFU=   227
 ExpMin= 1.61D-01 ExpMax= 5.48D+03 ExpMxC= 8.25D+02 IAcc=3 IRadAn=         5 AccDes= 0.00D+00
 Harris functional with IExCor=  402 and IRadAn=       5 diagonalized for initial guess.
 HarFok:  IExCor=  402 AccDes= 0.00D+00 IRadAn=         5 IDoV= 1 UseB2=F ITyADJ=14
 ICtDFT=  3500011 ScaDFX=  1.000000  1.000000  1.000000  1.000000
 FoFCou: FMM=F IPFlag=           0 FMFlag=      100000 FMFlg1=           0
         NFxFlg=           0 DoJE=T BraDBF=F KetDBF=T FulRan=T
         wScrn=  0.000000 ICntrl=       500 IOpCl=  0 I1Cent=   200000004 NGrid=           0
         NMat0=    1 NMatS0=      1 NMatT0=    0 NMatD0=    1 NMtDS0=    0 NMtDT0=    0
 Petite list used in FoFCou.
 Keep R1 ints in memory in canonical form, NReq=340776148.
 Requested convergence on RMS density matrix=1.00D-08 within  32 cycles.
 Requested convergence on MAX density matrix=1.00D-06.
 Requested convergence on             energy=1.00D-06.
 No special actions if energy rises.
 Integral accuracy reduced to 1.0D-05 until final iterations.
 Initial convergence to 1.0D-05 achieved.  Increase integral accuracy.
 SCF Done:  E(RB3LYP) =  -616.395631774     A.U. after   13 cycles
            NFock= 13  Conv=0.28D-08     -V/T= 2.0090
 QCSCF skips out because SCF is already converged.

 **********************************************************************

            Population analysis using the SCF density.

 **********************************************************************

 Orbital symmetries:
       Occupied  (A) (A) (A) (A) (A) (A) (A) (A) (A) (A) (A) (A)
                 (A) (A) (A) (A) (A) (A) (A) (A) (A) (A) (A) (A)
                 (A) (A) (A) (A) (A) (A) (A) (A) (A) (A) (A) (A)
                 (A) (A) (A) (A) (A) (A) (A) (A) (A) (A) (A) (A)
                 (A) (A)
       Virtual   (A) (A) (A) (A) (A) (A) (A) (A) (A) (A) (A) (A)
                 (A) (A) (A) (A) (A) (A) (A) (A) (A) (A) (A) (A)
                 (A) (A) (A) (A) (A) (A) (A) (A) (A) (A) (A) (A)
                 (A) (A) (A) (A) (A) (A) (A) (A) (A) (A) (A) (A)
                 (A) (A) (A) (A) (A) (A) (A) (A) (A) (A) (A) (A)
                 (A) (A) (A) (A) (A) (A) (A) (A) (A) (A) (A) (A)
                 (A) (A) (A) (A) (A) (A) (A) (A) (A) (A) (A) (A)
                 (A) (A) (A) (A) (A) (A) (A) (A) (A) (A) (A) (A)
                 (A) (A) (A) (A) (A) (A) (A) (A) (A) (A) (A) (A)
                 (A) (A) (A) (A) (A) (A) (A) (A) (A) (A) (A) (A)
                 (A) (A) (A) (A) (A) (A) (A) (A) (A) (A) (A) (A)
                 (A) (A) (A) (A) (A) (A) (A) (A) (A) (A) (A) (A)
                 (A) (A) (A) (A) (A) (A) (A) (A) (A) (A) (A) (A)
                 (A) (A) (A) (A) (A) (A) (A) (A) (A) (A) (A) (A)
                 (A) (A) (A) (A) (A) (A) (A) (A) (A)
 The electronic state is 1-A.
 Alpha  occ. eigenvalues --  -19.15300 -19.15200 -19.13301 -10.28078 -10.23639
 Alpha  occ. eigenvalues --  -10.23609 -10.22339 -10.18078 -10.18001 -10.17407
 Alpha  occ. eigenvalues --  -10.16976 -10.16836 -10.16801  -1.08230  -1.00846
 Alpha  occ. eigenvalues --   -0.99161  -0.84788  -0.76689  -0.75072  -0.72823
 Alpha  occ. eigenvalues --   -0.68752  -0.63296  -0.60375  -0.59580  -0.58446
 Alpha  occ. eigenvalues --   -0.51734  -0.51467  -0.50392  -0.49558  -0.47418
 Alpha  occ. eigenvalues --   -0.46117  -0.45411  -0.42161  -0.39974  -0.39430
 Alpha  occ. eigenvalues --   -0.39023  -0.38611  -0.37982  -0.37405  -0.36486
 Alpha  occ. eigenvalues --   -0.36093  -0.34420  -0.34051  -0.32424  -0.29951
 Alpha  occ. eigenvalues --   -0.29708  -0.29137  -0.26759  -0.24991  -0.24169
 Alpha virt. eigenvalues --    0.07132   0.08955   0.10187   0.11139   0.11771
 Alpha virt. eigenvalues --    0.12103   0.13397   0.14374   0.14526   0.15257
 Alpha virt. eigenvalues --    0.16890   0.17508   0.18103   0.18372   0.19370
 Alpha virt. eigenvalues --    0.20088   0.20178   0.21535   0.21720   0.22405
 Alpha virt. eigenvalues --    0.22927   0.23869   0.24935   0.25900   0.26278
 Alpha virt. eigenvalues --    0.27723   0.28189   0.30294   0.33924   0.36310
 Alpha virt. eigenvalues --    0.37994   0.51735   0.52257   0.53173   0.53524
 Alpha virt. eigenvalues --    0.54610   0.55147   0.55590   0.56478   0.61254
 Alpha virt. eigenvalues --    0.61782   0.62200   0.63861   0.64893   0.65111
 Alpha virt. eigenvalues --    0.65739   0.67157   0.68191   0.69797   0.71066
 Alpha virt. eigenvalues --    0.72593   0.74183   0.75932   0.77480   0.78737
 Alpha virt. eigenvalues --    0.81417   0.82920   0.83457   0.84671   0.85297
 Alpha virt. eigenvalues --    0.86243   0.86905   0.87102   0.88095   0.89101
 Alpha virt. eigenvalues --    0.89779   0.90561   0.91992   0.92480   0.93691
 Alpha virt. eigenvalues --    0.94662   0.95735   0.96134   0.97777   0.98138
 Alpha virt. eigenvalues --    0.99567   1.03284   1.04530   1.07162   1.08135
 Alpha virt. eigenvalues --    1.10405   1.14055   1.16277   1.19735   1.24160
 Alpha virt. eigenvalues --    1.25427   1.28520   1.31734   1.35599   1.38801
 Alpha virt. eigenvalues --    1.42220   1.43786   1.44309   1.47122   1.51650
 Alpha virt. eigenvalues --    1.55539   1.59476   1.61627   1.63278   1.64977
 Alpha virt. eigenvalues --    1.65059   1.68113   1.71929   1.74484   1.75178
 Alpha virt. eigenvalues --    1.78460   1.81446   1.82558   1.84698   1.87015
 Alpha virt. eigenvalues --    1.88187   1.90489   1.91171   1.92191   1.93443
 Alpha virt. eigenvalues --    1.94859   1.96727   1.98640   1.99326   2.01012
 Alpha virt. eigenvalues --    2.01519   2.03106   2.05575   2.06110   2.08065
 Alpha virt. eigenvalues --    2.11528   2.12497   2.14418   2.15724   2.18971
 Alpha virt. eigenvalues --    2.20650   2.22215   2.24143   2.27723   2.30680
 Alpha virt. eigenvalues --    2.34302   2.36312   2.38440   2.40670   2.41341
 Alpha virt. eigenvalues --    2.42913   2.45660   2.45789   2.48410   2.49900
 Alpha virt. eigenvalues --    2.52804   2.53661   2.56235   2.58924   2.61214
 Alpha virt. eigenvalues --    2.64924   2.67163   2.70821   2.73724   2.74485
 Alpha virt. eigenvalues --    2.76965   2.81494   2.84475   2.85685   2.87146
 Alpha virt. eigenvalues --    2.92091   2.97651   3.02629   3.16549   3.83591
 Alpha virt. eigenvalues --    4.04595   4.12453   4.21123   4.23010   4.35105
 Alpha virt. eigenvalues --    4.38113   4.48766   4.49249   4.58722   4.67661
 Alpha virt. eigenvalues --    4.74798   5.01545
          Condensed to atoms (all electrons):
               1          2          3          4          5          6
     1  C    5.089466   0.355522  -0.048445  -0.013425  -0.030390   0.352901
     2  C    0.355522   5.075767   0.364602  -0.036600  -0.020573  -0.045214
     3  C   -0.048445   0.364602   5.056813   0.304024  -0.037082   0.027868
     4  C   -0.013425  -0.036600   0.304024   5.287452   0.350571  -0.098132
     5  C   -0.030390  -0.020573  -0.037082   0.350571   4.588063   0.401954
     6  C    0.352901  -0.045214   0.027868  -0.098132   0.401954   5.025841
     7  C   -0.040188  -0.023963  -0.053696  -0.011725  -0.025258   0.335059
     8  C   -0.019834  -0.033023   0.378811  -0.033525  -0.018990  -0.041829
     9  O    0.000586  -0.003459  -0.046907   0.003809   0.000086   0.000604
    10  O   -0.005570   0.000505   0.001592  -0.051704   0.200273  -0.045394
    11  C    0.000460  -0.000064  -0.000165   0.006474  -0.050796  -0.003270
    12  C   -0.000181   0.000003   0.000091  -0.001664  -0.052331   0.005447
    13  O    0.002932   0.000053   0.000555  -0.054781   0.199492  -0.048705
    14  H    0.367961  -0.033036   0.001524   0.001780  -0.008155  -0.031215
    15  H    0.364946  -0.033965   0.001918  -0.000043   0.004251  -0.027741
    16  H   -0.030721   0.365350  -0.032071   0.005869   0.000257   0.001203
    17  H   -0.035352   0.368977  -0.033387  -0.006637   0.000712   0.002150
    18  H    0.006134  -0.044895   0.361850  -0.031671   0.005010  -0.000558
    19  H   -0.000537  -0.005991  -0.021726   0.334718  -0.025390   0.004100
    20  H    0.000090   0.005653  -0.031734   0.349049  -0.028414   0.003504
    21  H   -0.038463   0.005644  -0.000032   0.006851  -0.030742   0.356177
    22  H    0.005720   0.000093   0.002927   0.001200  -0.008014  -0.031278
    23  H   -0.006966   0.000972   0.000377  -0.000014   0.003804  -0.023719
    24  H   -0.000019   0.006756  -0.064195   0.000993   0.000106   0.002340
    25  H    0.000018  -0.000635  -0.003110  -0.000012   0.000007  -0.000269
    26  H    0.000223   0.000004   0.000015  -0.000241   0.000504   0.002150
    27  H   -0.000008   0.000001   0.000000   0.000032   0.005920  -0.000344
    28  H   -0.000002   0.000000   0.000005  -0.000472   0.006262   0.000056
    29  H    0.000028   0.000002  -0.000011   0.003872  -0.001863  -0.000192
               7          8          9         10         11         12
     1  C   -0.040188  -0.019834   0.000586  -0.005570   0.000460  -0.000181
     2  C   -0.023963  -0.033023  -0.003459   0.000505  -0.000064   0.000003
     3  C   -0.053696   0.378811  -0.046907   0.001592  -0.000165   0.000091
     4  C   -0.011725  -0.033525   0.003809  -0.051704   0.006474  -0.001664
     5  C   -0.025258  -0.018990   0.000086   0.200273  -0.050796  -0.052331
     6  C    0.335059  -0.041829   0.000604  -0.045394  -0.003270   0.005447
     7  C    5.170456   0.351277  -0.040474   0.003067  -0.000005  -0.000030
     8  C    0.351277   4.784107   0.223598   0.000124  -0.000009  -0.000078
     9  O   -0.040474   0.223598   8.300390   0.000000  -0.000000   0.000000
    10  O    0.003067   0.000124   0.000000   8.322961   0.247673  -0.047164
    11  C   -0.000005  -0.000009  -0.000000   0.247673   4.883119   0.356616
    12  C   -0.000030  -0.000078   0.000000  -0.047164   0.356616   4.883932
    13  O   -0.005179   0.001396   0.000002  -0.040413  -0.046882   0.248407
    14  H    0.005645   0.000051  -0.000003   0.009392  -0.000004   0.000029
    15  H   -0.006970   0.000955   0.000040   0.000125  -0.000022   0.000006
    16  H    0.001362  -0.009373   0.012695  -0.000001   0.000000  -0.000000
    17  H   -0.000062   0.004886   0.000145   0.000039  -0.000002   0.000001
    18  H    0.006666  -0.042202  -0.001881  -0.000075   0.000006  -0.000002
    19  H   -0.000109   0.004478  -0.000073   0.002160   0.000070   0.000196
    20  H   -0.000197  -0.004691   0.000039   0.002758  -0.000070   0.001182
    21  H   -0.036923   0.005313  -0.000071  -0.001617   0.000616   0.000216
    22  H    0.357515  -0.026183   0.002341   0.000070   0.000043  -0.000202
    23  H    0.351665  -0.028605   0.000719  -0.000054  -0.000000   0.000005
    24  H   -0.049399   0.373313  -0.041787   0.000005  -0.000003   0.000028
    25  H    0.008024  -0.027393   0.229064  -0.000000   0.000000  -0.000000
    26  H   -0.000257   0.000001   0.000000  -0.048035   0.359355  -0.040498
    27  H    0.000006   0.000000  -0.000000  -0.031401   0.363750  -0.027205
    28  H   -0.000007   0.000002  -0.000000   0.003517  -0.026798   0.363195
    29  H   -0.000036  -0.000010  -0.000000  -0.000927  -0.040725   0.360596
              13         14         15         16         17         18
     1  C    0.002932   0.367961   0.364946  -0.030721  -0.035352   0.006134
     2  C    0.000053  -0.033036  -0.033965   0.365350   0.368977  -0.044895
     3  C    0.000555   0.001524   0.001918  -0.032071  -0.033387   0.361850
     4  C   -0.054781   0.001780  -0.000043   0.005869  -0.006637  -0.031671
     5  C    0.199492  -0.008155   0.004251   0.000257   0.000712   0.005010
     6  C   -0.048705  -0.031215  -0.027741   0.001203   0.002150  -0.000558
     7  C   -0.005179   0.005645  -0.006970   0.001362  -0.000062   0.006666
     8  C    0.001396   0.000051   0.000955  -0.009373   0.004886  -0.042202
     9  O    0.000002  -0.000003   0.000040   0.012695   0.000145  -0.001881
    10  O   -0.040413   0.009392   0.000125  -0.000001   0.000039  -0.000075
    11  C   -0.046882  -0.000004  -0.000022   0.000000  -0.000002   0.000006
    12  C    0.248407   0.000029   0.000006  -0.000000   0.000001  -0.000002
    13  O    8.332584   0.000101  -0.000057   0.000002  -0.000000  -0.000095
    14  H    0.000101   0.584728  -0.036506   0.004337  -0.012649  -0.000137
    15  H   -0.000057  -0.036506   0.601994  -0.012489   0.004728  -0.000184
    16  H    0.000002   0.004337  -0.012489   0.589759  -0.037500  -0.002508
    17  H   -0.000000  -0.012649   0.004728  -0.037500   0.610492  -0.002798
    18  H   -0.000095  -0.000137  -0.000184  -0.002508  -0.002798   0.649696
    19  H    0.003415  -0.000113   0.000044  -0.000006   0.004981  -0.004201
    20  H   -0.000747  -0.000012   0.000012  -0.000177   0.000047  -0.003627
    21  H    0.000314  -0.002088  -0.002762  -0.000174  -0.000161   0.000002
    22  H    0.009046  -0.000193   0.000003  -0.000002   0.000010  -0.000131
    23  H    0.000078   0.000035   0.005054  -0.000027   0.000018  -0.000211
    24  H    0.000447   0.000014   0.000015   0.000342  -0.000149  -0.004347
    25  H   -0.000000  -0.000000  -0.000007  -0.000233  -0.000069   0.006413
    26  H   -0.001187  -0.000137  -0.000002   0.000000  -0.000000  -0.000000
    27  H    0.003519   0.000015  -0.000000  -0.000000  -0.000000  -0.000000
    28  H   -0.031875  -0.000001  -0.000000   0.000000   0.000000  -0.000000
    29  H   -0.047784  -0.000001  -0.000000  -0.000000  -0.000000   0.000002
              19         20         21         22         23         24
     1  C   -0.000537   0.000090  -0.038463   0.005720  -0.006966  -0.000019
     2  C   -0.005991   0.005653   0.005644   0.000093   0.000972   0.006756
     3  C   -0.021726  -0.031734  -0.000032   0.002927   0.000377  -0.064195
     4  C    0.334718   0.349049   0.006851   0.001200  -0.000014   0.000993
     5  C   -0.025390  -0.028414  -0.030742  -0.008014   0.003804   0.000106
     6  C    0.004100   0.003504   0.356177  -0.031278  -0.023719   0.002340
     7  C   -0.000109  -0.000197  -0.036923   0.357515   0.351665  -0.049399
     8  C    0.004478  -0.004691   0.005313  -0.026183  -0.028605   0.373313
     9  O   -0.000073   0.000039  -0.000071   0.002341   0.000719  -0.041787
    10  O    0.002160   0.002758  -0.001617   0.000070  -0.000054   0.000005
    11  C    0.000070  -0.000070   0.000616   0.000043  -0.000000  -0.000003
    12  C    0.000196   0.001182   0.000216  -0.000202   0.000005   0.000028
    13  O    0.003415  -0.000747   0.000314   0.009046   0.000078   0.000447
    14  H   -0.000113  -0.000012  -0.002088  -0.000193   0.000035   0.000014
    15  H    0.000044   0.000012  -0.002762   0.000003   0.005054   0.000015
    16  H   -0.000006  -0.000177  -0.000174  -0.000002  -0.000027   0.000342
    17  H    0.004981   0.000047  -0.000161   0.000010   0.000018  -0.000149
    18  H   -0.004201  -0.003627   0.000002  -0.000131  -0.000211  -0.004347
    19  H    0.581418  -0.028200  -0.000202  -0.000001   0.000016  -0.000084
    20  H   -0.028200   0.582893  -0.000160  -0.000057   0.000034   0.005791
    21  H   -0.000202  -0.000160   0.624622  -0.002320  -0.003038  -0.000221
    22  H   -0.000001  -0.000057  -0.002320   0.577127  -0.032129  -0.009637
    23  H    0.000016   0.000034  -0.003038  -0.032129   0.571639   0.005050
    24  H   -0.000084   0.005791  -0.000221  -0.009637   0.005050   0.664581
    25  H   -0.000008  -0.000009   0.000007  -0.000324   0.000016  -0.004724
    26  H    0.000030   0.000020   0.001408   0.000004   0.000005  -0.000000
    27  H   -0.000183  -0.000012   0.000000  -0.000000  -0.000000  -0.000000
    28  H    0.000022  -0.000043  -0.000097  -0.000026  -0.000000   0.000000
    29  H   -0.000483   0.000379   0.000034   0.000032   0.000000  -0.000002
              25         26         27         28         29
     1  C    0.000018   0.000223  -0.000008  -0.000002   0.000028
     2  C   -0.000635   0.000004   0.000001   0.000000   0.000002
     3  C   -0.003110   0.000015   0.000000   0.000005  -0.000011
     4  C   -0.000012  -0.000241   0.000032  -0.000472   0.003872
     5  C    0.000007   0.000504   0.005920   0.006262  -0.001863
     6  C   -0.000269   0.002150  -0.000344   0.000056  -0.000192
     7  C    0.008024  -0.000257   0.000006  -0.000007  -0.000036
     8  C   -0.027393   0.000001   0.000000   0.000002  -0.000010
     9  O    0.229064   0.000000  -0.000000  -0.000000  -0.000000
    10  O   -0.000000  -0.048035  -0.031401   0.003517  -0.000927
    11  C    0.000000   0.359355   0.363750  -0.026798  -0.040725
    12  C   -0.000000  -0.040498  -0.027205   0.363195   0.360596
    13  O   -0.000000  -0.001187   0.003519  -0.031875  -0.047784
    14  H   -0.000000  -0.000137   0.000015  -0.000001  -0.000001
    15  H   -0.000007  -0.000002  -0.000000  -0.000000  -0.000000
    16  H   -0.000233   0.000000  -0.000000   0.000000  -0.000000
    17  H   -0.000069  -0.000000  -0.000000   0.000000  -0.000000
    18  H    0.006413  -0.000000  -0.000000  -0.000000   0.000002
    19  H   -0.000008   0.000030  -0.000183   0.000022  -0.000483
    20  H   -0.000009   0.000020  -0.000012  -0.000043   0.000379
    21  H    0.000007   0.001408   0.000000  -0.000097   0.000034
    22  H   -0.000324   0.000004  -0.000000  -0.000026   0.000032
    23  H    0.000016   0.000005  -0.000000  -0.000000   0.000000
    24  H   -0.004724  -0.000000  -0.000000   0.000000  -0.000002
    25  H    0.410089   0.000000  -0.000000  -0.000000   0.000000
    26  H    0.000000   0.629691  -0.046298  -0.003234   0.006033
    27  H   -0.000000  -0.046298   0.583090   0.001713  -0.003233
    28  H   -0.000000  -0.003234   0.001713   0.584245  -0.046792
    29  H    0.000000   0.006033  -0.003233  -0.046792   0.631639
 Mulliken charges:
               1
     1  C   -0.276887
     2  C   -0.268484
     3  C   -0.130411
     4  C   -0.316047
     5  C    0.570729
     6  C   -0.123495
     7  C   -0.296263
     8  C    0.157434
     9  O   -0.639461
    10  O   -0.521904
    11  C   -0.049367
    12  C   -0.050596
    13  O   -0.524635
    14  H    0.148636
    15  H    0.136658
    16  H    0.144105
    17  H    0.131581
    18  H    0.103742
    19  H    0.151658
    20  H    0.146700
    21  H    0.117868
    22  H    0.154367
    23  H    0.155275
    24  H    0.114788
    25  H    0.383155
    26  H    0.140446
    27  H    0.150638
    28  H    0.150331
    29  H    0.139441
 Sum of Mulliken charges =  -0.00000
 Mulliken charges with hydrogens summed into heavy atoms:
               1
     1  C    0.008407
     2  C    0.007203
     3  C   -0.026668
     4  C   -0.017689
     5  C    0.570729
     6  C   -0.005627
     7  C    0.013378
     8  C    0.272223
     9  O   -0.256307
    10  O   -0.521904
    11  C    0.241716
    12  C    0.239175
    13  O   -0.524635
 Electronic spatial extent (au):  <R**2>=           2204.5981
 Charge=              0.0000 electrons
 Dipole moment (field-independent basis, Debye):
    X=             -1.6222    Y=             -0.2785    Z=              1.1975  Tot=              2.0354
 Quadrupole moment (field-independent basis, Debye-Ang):
   XX=            -71.3835   YY=            -80.8560   ZZ=            -75.5824
   XY=              1.4510   XZ=              5.9743   YZ=             -2.4967
 Traceless Quadrupole moment (field-independent basis, Debye-Ang):
   XX=              4.5571   YY=             -4.9154   ZZ=              0.3582
   XY=              1.4510   XZ=              5.9743   YZ=             -2.4967
 Octapole moment (field-independent basis, Debye-Ang**2):
  XXX=            -40.6809  YYY=             -5.9089  ZZZ=             -0.2716  XYY=              2.9486
  XXY=             -7.9668  XXZ=             19.6385  XZZ=              2.7146  YZZ=             -2.7200
  YYZ=              2.1035  XYZ=             -5.3503
 Hexadecapole moment (field-independent basis, Debye-Ang**3):
 XXXX=          -1665.1078 YYYY=           -578.2247 ZZZZ=           -422.9346 XXXY=             -7.2220
 XXXZ=             83.8882 YYYX=            -10.5287 YYYZ=              0.5471 ZZZX=              0.1888
 ZZZY=             -0.2230 XXYY=           -394.8100 XXZZ=           -358.8816 YYZZ=           -165.5385
 XXYZ=            -25.3498 YYXZ=              7.1377 ZZXY=             -6.4358
 N-N= 9.203893467987D+02 E-N=-3.277823990058D+03  KE= 6.109079339778D+02
 Calling FoFJK, ICntrl=      2127 FMM=F ISym2X=0 I1Cent= 0 IOpClX= 0 NMat=1 NMatS=1 NMatT=0.
 ***** Axes restored to original set *****
 -------------------------------------------------------------------
 Center     Atomic                   Forces (Hartrees/Bohr)
 Number     Number              X              Y              Z
 -------------------------------------------------------------------
      1        6          -0.003269441    0.007782673   -0.000226720
      2        6           0.008520538   -0.003220814    0.004270803
      3        6          -0.003855059    0.008288913   -0.002024189
      4        6           0.010288320   -0.005259605    0.006767140
      5        6           0.014222731   -0.003213499   -0.001142106
      6        6           0.004959276   -0.000305791   -0.002289731
      7        6          -0.010165742   -0.000276200   -0.003337267
      8        6           0.009399500   -0.005029612    0.005670911
      9        8           0.008383748    0.000304735   -0.005419803
     10        8          -0.008920401   -0.010610077   -0.002341095
     11        6           0.003461859    0.010897051   -0.000022948
     12        6          -0.002369034   -0.010965804   -0.001086375
     13        8          -0.002435772    0.015584003   -0.000899090
     14        1          -0.002533182   -0.001161549   -0.002075708
     15        1          -0.003259897   -0.000925795   -0.002301371
     16        1          -0.001648062   -0.003280806    0.000583748
     17        1          -0.000477267   -0.003153163    0.001132971
     18        1          -0.001160180   -0.003224338   -0.000089506
     19        1          -0.001605526    0.002369220   -0.002867943
     20        1          -0.003455662    0.002710784   -0.002982175
     21        1          -0.003813580   -0.001191818    0.002445364
     22        1           0.000418360    0.001542091    0.001145907
     23        1           0.002414093   -0.000947508    0.004594051
     24        1          -0.005709095   -0.000168160    0.003626399
     25        1          -0.001336788    0.001924906   -0.001449312
     26        1          -0.005335410    0.000824612   -0.003294338
     27        1           0.002702426    0.001242595    0.002491241
     28        1           0.001415457   -0.002321815   -0.002499120
     29        1          -0.004836210    0.001784774    0.003620263
 -------------------------------------------------------------------
 Cartesian Forces:  Max     0.015584003 RMS     0.004882907

 GradGradGradGradGradGradGradGradGradGradGradGradGradGradGradGradGradGrad
 Berny optimization.
 FormGI is forming the generalized inverse of G from B-inverse, IUseBI=4.
 Internal  Forces:  Max     0.009936767 RMS     0.002332699
 Search for a local minimum.
 Step number   1 out of a maximum of  174
 All quantities printed in internal units (Hartrees-Bohrs-Radians)
 Mixed Optimization -- RFO/linear search
 Second derivative matrix not updated -- first step.
 ITU=  0
     Eigenvalues ---    0.00255   0.00528   0.00537   0.01148   0.01293
     Eigenvalues ---    0.01383   0.01857   0.02001   0.02333   0.03163
     Eigenvalues ---    0.03258   0.03921   0.04252   0.04341   0.04546
     Eigenvalues ---    0.04659   0.04775   0.04796   0.04933   0.05000
     Eigenvalues ---    0.05040   0.05159   0.05384   0.05884   0.06310
     Eigenvalues ---    0.06657   0.06704   0.07519   0.07525   0.07798
     Eigenvalues ---    0.07815   0.07863   0.07918   0.08054   0.08271
     Eigenvalues ---    0.08492   0.08879   0.09441   0.09946   0.11007
     Eigenvalues ---    0.11085   0.11542   0.11814   0.11907   0.13590
     Eigenvalues ---    0.14540   0.16000   0.17801   0.18186   0.21891
     Eigenvalues ---    0.24370   0.24963   0.25479   0.25988   0.26467
     Eigenvalues ---    0.28202   0.28354   0.28486   0.28734   0.29661
     Eigenvalues ---    0.34009   0.34009   0.34017   0.34042   0.34045
     Eigenvalues ---    0.34062   0.34081   0.34090   0.34107   0.34115
     Eigenvalues ---    0.34149   0.34200   0.34202   0.34510   0.34510
     Eigenvalues ---    0.36266   0.37723   0.40514   0.40878   0.41956
     Eigenvalues ---    0.52879
 RFO step:  Lambda=-9.34490245D-03 EMin= 2.55318318D-03
 Linear search not attempted -- first point.
 Iteration  1 RMS(Cart)=  0.03624527 RMS(Int)=  0.00073246
 Iteration  2 RMS(Cart)=  0.00087982 RMS(Int)=  0.00029701
 Iteration  3 RMS(Cart)=  0.00000040 RMS(Int)=  0.00029701
 Variable       Old X    -DE/DX   Delta X   Delta X   Delta X     New X
                                 (Linear)    (Quad)   (Total)
    R1        2.90103   0.00994   0.00000   0.03904   0.03910   2.94013
    R2        2.91045  -0.00231   0.00000  -0.00394  -0.00402   2.90644
    R3        2.07149  -0.00116   0.00000  -0.00332  -0.00332   2.06817
    R4        2.07260  -0.00084   0.00000  -0.00241  -0.00241   2.07019
    R5        2.91395  -0.00285   0.00000  -0.00953  -0.00942   2.90453
    R6        2.07178  -0.00133   0.00000  -0.00378  -0.00378   2.06800
    R7        2.07255  -0.00026   0.00000  -0.00075  -0.00075   2.07180
    R8        2.91096  -0.00066   0.00000   0.00343   0.00335   2.91431
    R9        2.91540  -0.00110   0.00000  -0.00543  -0.00545   2.90995
   R10        2.07080   0.00136   0.00000   0.00387   0.00387   2.07466
   R11        2.91487   0.00407   0.00000   0.00675   0.00655   2.92142
   R12        2.07314  -0.00158   0.00000  -0.00453  -0.00453   2.06861
   R13        2.07301  -0.00097   0.00000  -0.00279  -0.00279   2.07022
   R14        2.92506  -0.00456   0.00000  -0.02677  -0.02684   2.89823
   R15        2.71630  -0.00136   0.00000  -0.00282  -0.00247   2.71383
   R16        2.71861  -0.00052   0.00000  -0.00084  -0.00052   2.71809
   R17        2.91327  -0.00138   0.00000  -0.00265  -0.00253   2.91074
   R18        2.07136  -0.00069   0.00000  -0.00196  -0.00196   2.06940
   R19        2.90389   0.00288   0.00000   0.01148   0.01162   2.91551
   R20        2.07226  -0.00159   0.00000  -0.00453  -0.00453   2.06773
   R21        2.07315  -0.00174   0.00000  -0.00499  -0.00499   2.06816
   R22        2.68979   0.00796   0.00000   0.01857   0.01857   2.70836
   R23        2.07193   0.00312   0.00000   0.00892   0.00892   2.08085
   R24        1.83767  -0.00270   0.00000  -0.00503  -0.00503   1.83264
   R25        2.69479   0.00176   0.00000   0.00502   0.00486   2.69965
   R26        2.83913   0.00727   0.00000   0.01896   0.01868   2.85780
   R27        2.06990   0.00308   0.00000   0.00876   0.00876   2.07866
   R28        2.06477   0.00065   0.00000   0.00182   0.00182   2.06659
   R29        2.69580   0.00128   0.00000   0.00369   0.00348   2.69928
   R30        2.06477   0.00075   0.00000   0.00212   0.00212   2.06690
   R31        2.06994   0.00328   0.00000   0.00933   0.00933   2.07927
    A1        1.91853  -0.00013   0.00000  -0.00030  -0.00058   1.91795
    A2        1.91920   0.00219   0.00000   0.02327   0.02338   1.94258
    A3        1.91369   0.00162   0.00000   0.01828   0.01811   1.93180
    A4        1.93270  -0.00192   0.00000  -0.01701  -0.01704   1.91567
    A5        1.92265  -0.00228   0.00000  -0.03241  -0.03226   1.89039
    A6        1.85618   0.00057   0.00000   0.00878   0.00792   1.86410
    A7        1.92499  -0.00176   0.00000  -0.01338  -0.01345   1.91153
    A8        1.91708   0.00275   0.00000   0.02517   0.02489   1.94197
    A9        1.91339   0.00191   0.00000   0.02061   0.02038   1.93377
   A10        1.92891  -0.00180   0.00000  -0.01813  -0.01802   1.91088
   A11        1.92135  -0.00118   0.00000  -0.02192  -0.02172   1.89963
   A12        1.85700   0.00020   0.00000   0.00888   0.00812   1.86512
   A13        1.89116   0.00020   0.00000   0.00925   0.00940   1.90056
   A14        1.91392   0.00173   0.00000  -0.00055  -0.00100   1.91292
   A15        1.90578  -0.00031   0.00000   0.01285   0.01291   1.91869
   A16        1.89360  -0.00129   0.00000   0.00629   0.00637   1.89997
   A17        1.92996   0.00109   0.00000  -0.00639  -0.00662   1.92334
   A18        1.92898  -0.00137   0.00000  -0.02092  -0.02077   1.90821
   A19        1.91533   0.00144   0.00000   0.00536   0.00535   1.92069
   A20        1.90763   0.00139   0.00000   0.01497   0.01488   1.92251
   A21        1.90690   0.00181   0.00000   0.02735   0.02739   1.93429
   A22        1.93490  -0.00237   0.00000  -0.02556  -0.02562   1.90927
   A23        1.93304  -0.00355   0.00000  -0.03667  -0.03676   1.89628
   A24        1.86519   0.00137   0.00000   0.01599   0.01488   1.88007
   A25        1.92081  -0.00117   0.00000  -0.00549  -0.00562   1.91519
   A26        1.90195   0.00179   0.00000   0.01589   0.01624   1.91819
   A27        1.90784   0.00407   0.00000   0.04032   0.04034   1.94818
   A28        1.92200   0.00198   0.00000   0.01587   0.01521   1.93722
   A29        1.90669  -0.00065   0.00000  -0.01363  -0.01374   1.89295
   A30        1.90440  -0.00604   0.00000  -0.05308  -0.05296   1.85144
   A31        1.90722   0.00111   0.00000  -0.00042  -0.00038   1.90684
   A32        1.88265   0.00091   0.00000   0.01798   0.01787   1.90052
   A33        1.91535   0.00010   0.00000   0.01587   0.01560   1.93095
   A34        1.91277  -0.00129   0.00000  -0.01231  -0.01237   1.90040
   A35        1.93002  -0.00222   0.00000  -0.03379  -0.03373   1.89629
   A36        1.91518   0.00146   0.00000   0.01391   0.01331   1.92850
   A37        1.91408   0.00184   0.00000   0.01333   0.01294   1.92702
   A38        1.92003  -0.00190   0.00000   0.00380   0.00338   1.92341
   A39        1.92234   0.00098   0.00000  -0.01064  -0.01068   1.91166
   A40        1.91067   0.00117   0.00000   0.01808   0.01813   1.92879
   A41        1.94196  -0.00375   0.00000  -0.04348  -0.04355   1.89840
   A42        1.85400   0.00160   0.00000   0.01931   0.01957   1.87357
   A43        1.92513  -0.00140   0.00000  -0.01479  -0.01516   1.90997
   A44        1.92505   0.00412   0.00000   0.03180   0.03164   1.95668
   A45        1.92545  -0.00240   0.00000  -0.03238  -0.03292   1.89253
   A46        1.90288  -0.00261   0.00000  -0.02217  -0.02179   1.88109
   A47        1.91301  -0.00000   0.00000  -0.00610  -0.00660   1.90641
   A48        1.87144   0.00238   0.00000   0.04513   0.04532   1.91676
   A49        1.87632  -0.00091   0.00000  -0.00540  -0.00540   1.87092
   A50        1.83010   0.00619   0.00000   0.04267   0.04250   1.87260
   A51        1.79890  -0.00347   0.00000  -0.02292  -0.02283   1.77607
   A52        1.88839   0.00294   0.00000   0.04597   0.04554   1.93393
   A53        1.93369   0.00017   0.00000  -0.02426  -0.02380   1.90989
   A54        1.94944  -0.00128   0.00000  -0.01091  -0.01049   1.93895
   A55        1.98007   0.00230   0.00000   0.01459   0.01403   1.99410
   A56        1.90925  -0.00065   0.00000  -0.00180  -0.00167   1.90758
   A57        1.80174  -0.00413   0.00000  -0.02454  -0.02435   1.77739
   A58        1.98050   0.00193   0.00000   0.01415   0.01373   1.99423
   A59        1.94841  -0.00067   0.00000  -0.01017  -0.00991   1.93850
   A60        1.93342   0.00060   0.00000  -0.02192  -0.02152   1.91190
   A61        1.88637   0.00299   0.00000   0.04479   0.04431   1.93068
   A62        1.90928  -0.00072   0.00000  -0.00164  -0.00153   1.90775
   A63        1.83124   0.00639   0.00000   0.04323   0.04310   1.87434
    D1       -0.02272  -0.00008   0.00000  -0.02408  -0.02397  -0.04670
    D2        2.10751  -0.00167   0.00000  -0.03892  -0.03916   2.06835
    D3       -2.14109   0.00127   0.00000  -0.00159  -0.00136  -2.14245
    D4        2.10942  -0.00112   0.00000  -0.03027  -0.03031   2.07912
    D5       -2.04353  -0.00271   0.00000  -0.04510  -0.04549  -2.08902
    D6       -0.00895   0.00023   0.00000  -0.00778  -0.00769  -0.01664
    D7       -2.13877   0.00179   0.00000   0.00459   0.00491  -2.13386
    D8       -0.00854   0.00020   0.00000  -0.01024  -0.01028  -0.01882
    D9        2.02604   0.00314   0.00000   0.02709   0.02752   2.05356
   D10        1.04198   0.00127   0.00000   0.02699   0.02707   1.06905
   D11       -1.03634   0.00166   0.00000   0.03158   0.03176  -1.00457
   D12       -3.12218  -0.00070   0.00000  -0.00502  -0.00508  -3.12726
   D13       -1.08213  -0.00014   0.00000   0.00918   0.00940  -1.07273
   D14        3.12274   0.00025   0.00000   0.01377   0.01409   3.13683
   D15        1.03690  -0.00211   0.00000  -0.02283  -0.02275   1.01414
   D16       -3.13054   0.00174   0.00000   0.02872   0.02866  -3.10188
   D17        1.07433   0.00213   0.00000   0.03331   0.03335   1.10769
   D18       -1.01151  -0.00023   0.00000  -0.00329  -0.00349  -1.01500
   D19       -1.03254   0.00126   0.00000   0.02387   0.02373  -1.00880
   D20        1.03147   0.00081   0.00000   0.03653   0.03641   1.06788
   D21       -3.13577   0.00001   0.00000   0.01850   0.01828  -3.11749
   D22        3.12741   0.00018   0.00000   0.01320   0.01324   3.14065
   D23       -1.09177  -0.00027   0.00000   0.02586   0.02591  -1.06585
   D24        1.02418  -0.00108   0.00000   0.00782   0.00778   1.03196
   D25        1.08110   0.00174   0.00000   0.02661   0.02661   1.10770
   D26       -3.13808   0.00129   0.00000   0.03927   0.03928  -3.09880
   D27       -1.02214   0.00049   0.00000   0.02123   0.02115  -1.00098
   D28        1.07542   0.00067   0.00000   0.00007  -0.00002   1.07540
   D29       -1.04990   0.00180   0.00000   0.01874   0.01882  -1.03108
   D30       -3.08521  -0.00165   0.00000  -0.02445  -0.02471  -3.10992
   D31       -1.00146  -0.00078   0.00000  -0.00805  -0.00789  -1.00935
   D32       -3.12678   0.00035   0.00000   0.01061   0.01094  -3.11583
   D33        1.12109  -0.00311   0.00000  -0.03258  -0.03259   1.08851
   D34       -3.11964   0.00106   0.00000   0.01772   0.01769  -3.10195
   D35        1.03823   0.00219   0.00000   0.03638   0.03653   1.07475
   D36       -0.99709  -0.00127   0.00000  -0.00681  -0.00701  -1.00409
   D37       -0.95816  -0.00220   0.00000  -0.04935  -0.04906  -1.00723
   D38        1.14485  -0.00370   0.00000  -0.06599  -0.06597   1.07889
   D39       -3.07410   0.00030   0.00000  -0.01070  -0.01112  -3.08522
   D40        1.10433  -0.00172   0.00000  -0.03485  -0.03452   1.06981
   D41       -3.07584  -0.00322   0.00000  -0.05149  -0.05142  -3.12726
   D42       -1.01161   0.00078   0.00000   0.00381   0.00343  -1.00818
   D43       -3.06007  -0.00205   0.00000  -0.05168  -0.05135  -3.11142
   D44       -0.95705  -0.00355   0.00000  -0.06832  -0.06825  -1.02530
   D45        1.10717   0.00045   0.00000  -0.01303  -0.01340   1.09377
   D46       -0.05976   0.00005   0.00000   0.00492   0.00484  -0.05491
   D47       -2.16898  -0.00280   0.00000  -0.02124  -0.02086  -2.18984
   D48        2.03432   0.00106   0.00000   0.00993   0.00979   2.04411
   D49        2.04917   0.00121   0.00000   0.01066   0.01034   2.05951
   D50       -0.06005  -0.00164   0.00000  -0.01550  -0.01536  -0.07542
   D51       -2.13994   0.00222   0.00000   0.01567   0.01529  -2.12465
   D52       -2.16657  -0.00087   0.00000  -0.00915  -0.00904  -2.17561
   D53        2.00740  -0.00372   0.00000  -0.03530  -0.03474   1.97265
   D54       -0.07249   0.00015   0.00000  -0.00414  -0.00409  -0.07658
   D55       -0.99532  -0.00070   0.00000  -0.01119  -0.01122  -1.00654
   D56        1.06422   0.00030   0.00000   0.00315   0.00294   1.06716
   D57       -3.10544  -0.00015   0.00000  -0.00925  -0.00925  -3.11469
   D58        1.10182   0.00203   0.00000   0.01510   0.01522   1.11703
   D59       -3.12183   0.00303   0.00000   0.02944   0.02938  -3.09245
   D60       -1.00831   0.00258   0.00000   0.01704   0.01719  -0.99112
   D61       -3.09009  -0.00458   0.00000  -0.04888  -0.04872  -3.13881
   D62       -1.03055  -0.00357   0.00000  -0.03453  -0.03456  -1.06511
   D63        1.08297  -0.00402   0.00000  -0.04694  -0.04675   1.03623
   D64       -2.31524  -0.00283   0.00000  -0.03479  -0.03498  -2.35022
   D65        1.85945  -0.00374   0.00000  -0.04788  -0.04830   1.81115
   D66       -0.23322  -0.00040   0.00000  -0.00782  -0.00843  -0.24164
   D67        1.87639  -0.00132   0.00000  -0.00191  -0.00265   1.87374
   D68       -2.30407  -0.00066   0.00000   0.00768   0.00664  -2.29743
   D69       -0.20198  -0.00231   0.00000  -0.01353  -0.01336  -0.21534
   D70        1.10923  -0.00155   0.00000  -0.03835  -0.03869   1.07054
   D71       -3.07154  -0.00013   0.00000  -0.00518  -0.00544  -3.07697
   D72       -1.03362   0.00127   0.00000   0.01431   0.01405  -1.01956
   D73       -0.96554  -0.00269   0.00000  -0.04140  -0.04156  -1.00711
   D74        1.13687  -0.00128   0.00000  -0.00824  -0.00831   1.12857
   D75       -3.10839   0.00013   0.00000   0.01126   0.01119  -3.09721
   D76       -3.08800  -0.00005   0.00000  -0.00052  -0.00046  -3.08847
   D77       -0.98559   0.00137   0.00000   0.03265   0.03279  -0.95280
   D78        1.05233   0.00277   0.00000   0.05215   0.05229   1.10462
   D79       -0.10147   0.00138   0.00000   0.04464   0.04450  -0.05697
   D80       -2.21773  -0.00116   0.00000   0.02881   0.02870  -2.18904
   D81        2.02186  -0.00252   0.00000  -0.00930  -0.00944   2.01242
   D82       -2.20956   0.00183   0.00000   0.02031   0.02008  -2.18948
   D83        1.95736  -0.00071   0.00000   0.00447   0.00428   1.96164
   D84       -0.08623  -0.00207   0.00000  -0.03363  -0.03386  -0.12009
   D85        2.02972   0.00138   0.00000   0.01136   0.01139   2.04111
   D86       -0.08655  -0.00116   0.00000  -0.00448  -0.00441  -0.09095
   D87       -2.13014  -0.00252   0.00000  -0.04258  -0.04255  -2.17269
   D88        1.05264   0.00047   0.00000   0.00187   0.00266   1.05530
   D89       -3.11424  -0.00035   0.00000  -0.01069  -0.01070  -3.12494
   D90       -1.04443  -0.00043   0.00000  -0.00459  -0.00537  -1.04980
   D91        0.55053   0.00137   0.00000   0.02006   0.02029   0.57082
   D92       -1.51612   0.00327   0.00000   0.02365   0.02416  -1.49196
   D93        2.67420   0.00213   0.00000   0.01152   0.01235   2.68655
   D94       -0.68139   0.00105   0.00000  -0.00362  -0.00283  -0.68422
   D95       -2.77509   0.00195   0.00000   0.03112   0.03150  -2.74359
   D96        1.34085   0.00194   0.00000   0.03044   0.03087   1.37171
   D97        1.34210   0.00197   0.00000   0.03238   0.03286   1.37495
   D98       -0.75161   0.00287   0.00000   0.06712   0.06719  -0.68441
   D99       -2.91885   0.00286   0.00000   0.06644   0.06656  -2.85230
   D100      -2.77338   0.00186   0.00000   0.03262   0.03308  -2.74030
   D101       1.41610   0.00276   0.00000   0.06736   0.06742   1.48352
   D102      -0.75115   0.00275   0.00000   0.06668   0.06678  -0.68437
   D103       0.53205   0.00231   0.00000   0.02255   0.02244   0.55449
   D104       2.65776   0.00246   0.00000   0.01357   0.01424   2.67200
   D105      -1.53394   0.00380   0.00000   0.02652   0.02690  -1.50705
         Item               Value     Threshold  Converged?
 Maximum Force            0.009937     0.000450     NO 
 RMS     Force            0.002333     0.000300     NO 
 Maximum Displacement     0.162365     0.001800     NO 
 RMS     Displacement     0.036156     0.001200     NO 
 Predicted change in Energy=-5.296813D-03
 GradGradGradGradGradGradGradGradGradGradGradGradGradGradGradGradGradGrad

                          Input orientation:                          
 ---------------------------------------------------------------------
 Center     Atomic      Atomic             Coordinates (Angstroms)
 Number     Number       Type             X           Y           Z
 ---------------------------------------------------------------------
      1          6           0        1.842806    1.009751   -0.718497
      2          6           0        2.569642    0.046696    0.263798
      3          6           0        1.833990   -1.302368    0.299041
      4          6           0        0.370303   -1.062139    0.721230
      5          6           0       -0.336995   -0.154751   -0.311408
      6          6           0        0.664090    0.282919   -1.387712
      7          6           0        1.195981   -0.968034   -2.112091
      8          6           0        1.849679   -1.936165   -1.104272
      9          8           0        3.181555   -2.207404   -1.558804
     10          8           0       -0.911569    0.983113    0.350036
     11          6           0       -2.234171    1.149773   -0.163606
     12          6           0       -2.640290   -0.280623   -0.439360
     13          8           0       -1.428918   -0.834983   -0.954709
     14          1           0        1.480994    1.904801   -0.202986
     15          1           0        2.526975    1.350944   -1.503106
     16          1           0        3.610518   -0.112789   -0.034056
     17          1           0        2.589323    0.465801    1.276689
     18          1           0        2.327117   -1.979151    1.009039
     19          1           0        0.335210   -0.587125    1.706834
     20          1           0       -0.176304   -2.009205    0.787875
     21          1           0        0.152246    0.945891   -2.093181
     22          1           0        0.384513   -1.466167   -2.651203
     23          1           0        1.945531   -0.671225   -2.852256
     24          1           0        1.268970   -2.871125   -1.070574
     25          1           0        3.578910   -2.827885   -0.928238
     26          1           0       -2.221779    1.743317   -1.089625
     27          1           0       -2.852874    1.656591    0.582243
     28          1           0       -3.436201   -0.386613   -1.182052
     29          1           0       -2.937321   -0.793208    0.487841
 ---------------------------------------------------------------------
                    Distance matrix (angstroms):
                    1          2          3          4          5
     1  C    0.000000
     2  C    1.555849   0.000000
     3  C    2.526134   1.537010   0.000000
     4  C    2.921268   2.505165   1.542184   0.000000
     5  C    2.504660   2.969845   2.530385   1.545951   0.000000
     6  C    1.538020   2.532669   2.593634   2.518557   1.533675
     7  C    2.504421   2.925999   2.516425   2.952679   2.500781
     8  C    2.971076   2.514299   1.539880   2.506976   2.929780
     9  O    3.584474   2.962648   2.467105   3.796489   4.260233
    10  O    2.954497   3.605987   3.572691   2.442138   1.436098
    11  C    4.116947   4.947330   4.772523   3.529699   2.307142
    12  C    4.673450   5.267348   4.648481   3.319850   2.310277
    13  O    3.763379   4.272072   3.526600   2.469326   1.438349
    14  H    1.094429   2.203542   3.265360   3.300082   2.749290
    15  H    1.095496   2.196550   3.281467   3.927069   3.448128
    16  H    2.203034   1.094338   2.163817   3.459872   3.957467
    17  H    2.198621   1.096351   2.157022   2.750851   3.386809
    18  H    3.486040   2.172156   1.097865   2.180106   3.488482
    19  H    3.271863   2.734368   2.177108   1.094662   2.170739
    20  H    3.931928   3.470101   2.186289   1.095516   2.161768
    21  H    2.179869   3.493952   3.688584   3.464195   2.150694
    22  H    3.462968   3.944715   3.291163   3.396579   2.777594
    23  H    2.718301   3.258023   3.215813   3.924788   3.454357
    24  H    3.938838   3.462077   2.157798   2.700111   3.245635
    25  H    4.217285   3.271511   2.622625   4.016685   4.781259
    26  H    4.146891   5.260037   5.258693   4.227135   2.785802
    27  H    4.915256   5.665409   5.549986   4.218968   3.226332
    28  H    5.480204   6.192608   5.550420   4.309095   3.227516
    29  H    5.249335   5.575147   4.802114   3.326736   2.794301
                    6          7          8          9         10
     6  C    0.000000
     7  C    1.540297   0.000000
[...]
   200    O   10  S      Val( 2S)     0.81180      -0.77447
   201    O   10  S      Ryd( 3S)     0.00116       1.48748
   202    O   10  S      Ryd( 4S)     0.00010       2.59234
   203    O   10  S      Ryd( 5S)     0.00000      49.45239
   204    O   10  px     Val( 2p)     0.69416      -0.18504
   205    O   10  px     Ryd( 3p)     0.00137       1.03184
   206    O   10  px     Ryd( 4p)     0.00020       1.49008
   207    O   10  px     Ryd( 5p)     0.00001       5.29696
   208    O   10  py     Val( 2p)     0.86467      -0.21974
   209    O   10  py     Ryd( 3p)     0.00123       0.69470
   210    O   10  py     Ryd( 4p)     0.00034       1.15294
   211    O   10  py     Ryd( 5p)     0.00004       5.30357
   212    O   10  pz     Val( 2p)     0.92730      -0.19962
   213    O   10  pz     Ryd( 3p)     0.00228       0.65549
   214    O   10  pz     Ryd( 4p)     0.00022       1.22542
   215    O   10  pz     Ryd( 5p)     0.00001       5.17644
   216    O   10  dxy    Ryd( 3d)     0.00055       3.60497
   217    O   10  dxz    Ryd( 3d)     0.00022       3.28315
   218    O   10  dyz    Ryd( 3d)     0.00045       3.16837
   219    O   10  dx2y2  Ryd( 3d)     0.00036       3.23712
   220    O   10  dz2    Ryd( 3d)     0.00035       3.28622
 
   221    C   11  S      Cor( 1S)     0.99958      -9.99590
   222    C   11  S      Val( 2S)     0.50917      -0.15290
   223    C   11  S      Ryd( 3S)     0.00074       1.69846
   224    C   11  S      Ryd( 4S)     0.00094       1.75646
   225    C   11  S      Ryd( 5S)     0.00003      17.79857
   226    C   11  px     Val( 2p)     0.45498       0.01997
   227    C   11  px     Ryd( 3p)     0.00194       1.38020
   228    C   11  px     Ryd( 4p)     0.00050       1.45856
   229    C   11  px     Ryd( 5p)     0.00008       2.42284
   230    C   11  py     Val( 2p)     0.48924       0.01164
   231    C   11  py     Ryd( 3p)     0.00185       1.58462
   232    C   11  py     Ryd( 4p)     0.00087       1.92180
   233    C   11  py     Ryd( 5p)     0.00011       2.45080
   234    C   11  pz     Val( 2p)     0.55852       0.00810
   235    C   11  pz     Ryd( 3p)     0.00101       0.94452
   236    C   11  pz     Ryd( 4p)     0.00044       1.11889
   237    C   11  pz     Ryd( 5p)     0.00005       2.70626
   238    C   11  dxy    Ryd( 3d)     0.00081       2.15927
   239    C   11  dxz    Ryd( 3d)     0.00086       2.11672
   240    C   11  dyz    Ryd( 3d)     0.00042       2.06889
   241    C   11  dx2y2  Ryd( 3d)     0.00069       2.34940
   242    C   11  dz2    Ryd( 3d)     0.00089       2.36659
 
   243    C   12  S      Cor( 1S)     0.99958      -9.99514
   244    C   12  S      Val( 2S)     0.50875      -0.15044
   245    C   12  S      Ryd( 3S)     0.00080       1.22192
   246    C   12  S      Ryd( 4S)     0.00094       1.79053
   247    C   12  S      Ryd( 5S)     0.00003      17.94553
   248    C   12  px     Val( 2p)     0.37551       0.03450
   249    C   12  px     Ryd( 4p)     0.00216       1.05360
   250    C   12  px     Ryd( 3p)     0.00047       1.02267
   251    C   12  px     Ryd( 5p)     0.00009       2.51185
   252    C   12  py     Val( 2p)     0.53911       0.00662
   253    C   12  py     Ryd( 3p)     0.00137       1.97259
   254    C   12  py     Ryd( 5p)     0.00079       2.67138
   255    C   12  py     Ryd( 4p)     0.00008       2.36541
   256    C   12  pz     Val( 2p)     0.58572       0.00688
   257    C   12  pz     Ryd( 3p)     0.00114       0.95856
   258    C   12  pz     Ryd( 4p)     0.00052       1.07470
   259    C   12  pz     Ryd( 5p)     0.00004       2.67756
   260    C   12  dxy    Ryd( 3d)     0.00076       2.07227
   261    C   12  dxz    Ryd( 3d)     0.00111       2.03916
   262    C   12  dyz    Ryd( 3d)     0.00035       2.18918
   263    C   12  dx2y2  Ryd( 3d)     0.00078       2.42697
   264    C   12  dz2    Ryd( 3d)     0.00066       2.32678
 
   265    O   13  S      Cor( 1S)     0.99987     -18.81142
   266    O   13  S      Val( 2S)     0.81239      -0.76979
   267    O   13  S      Ryd( 3S)     0.00108       1.61015
   268    O   13  S      Ryd( 4S)     0.00013       2.33591
   269    O   13  S      Ryd( 5S)     0.00000      49.52281
   270    O   13  px     Val( 2p)     0.71456      -0.18531
   271    O   13  px     Ryd( 3p)     0.00123       1.06421
   272    O   13  px     Ryd( 4p)     0.00021       1.53206
   273    O   13  px     Ryd( 5p)     0.00001       5.29353
   274    O   13  py     Val( 2p)     0.81911      -0.21106
   275    O   13  py     Ryd( 3p)     0.00126       0.77308
   276    O   13  py     Ryd( 4p)     0.00029       1.21586
   277    O   13  py     Ryd( 5p)     0.00004       5.31291
   278    O   13  pz     Val( 2p)     0.95760      -0.19444
   279    O   13  pz     Ryd( 3p)     0.00257       0.61343
   280    O   13  pz     Ryd( 4p)     0.00024       1.25597
   281    O   13  pz     Ryd( 5p)     0.00000       5.14578
   282    O   13  dxy    Ryd( 3d)     0.00043       3.37127
   283    O   13  dxz    Ryd( 3d)     0.00020       3.14582
   284    O   13  dyz    Ryd( 3d)     0.00034       3.12550
   285    O   13  dx2y2  Ryd( 3d)     0.00056       3.55163
   286    O   13  dz2    Ryd( 3d)     0.00035       3.36344
 
   287    H   14  S      Val( 1S)     0.39517       0.15961
   288    H   14  S      Ryd( 2S)     0.00061       0.54982
   289    H   14  S      Ryd( 4S)     0.00047       1.75619
   290    H   14  S      Ryd( 3S)     0.00007       1.10581
   291    H   14  px     Ryd( 2p)     0.00012       2.32742
   292    H   14  py     Ryd( 2p)     0.00011       2.48392
   293    H   14  pz     Ryd( 2p)     0.00007       2.03222
 
   294    H   15  S      Val( 1S)     0.40119       0.14846
   295    H   15  S      Ryd( 2S)     0.00018       0.58305
   296    H   15  S      Ryd( 3S)     0.00042       1.22091
   297    H   15  S      Ryd( 4S)     0.00006       1.58935
   298    H   15  px     Ryd( 2p)     0.00009       2.18014
   299    H   15  py     Ryd( 2p)     0.00008       2.14537
   300    H   15  pz     Ryd( 2p)     0.00014       2.58444
 
   301    H   16  S      Val( 1S)     0.39386       0.16401
   302    H   16  S      Ryd( 2S)     0.00073       0.42233
   303    H   16  S      Ryd( 4S)     0.00038       1.80911
   304    H   16  S      Ryd( 3S)     0.00002       1.14068
   305    H   16  px     Ryd( 2p)     0.00013       2.78485
   306    H   16  py     Ryd( 2p)     0.00007       1.99702
   307    H   16  pz     Ryd( 2p)     0.00009       2.05237
 
   308    H   17  S      Val( 1S)     0.40073       0.15167
   309    H   17  S      Ryd( 2S)     0.00031       0.46579
   310    H   17  S      Ryd( 4S)     0.00035       1.66697
   311    H   17  S      Ryd( 3S)     0.00003       1.21297
   312    H   17  px     Ryd( 2p)     0.00007       2.05202
   313    H   17  py     Ryd( 2p)     0.00013       2.54620
   314    H   17  pz     Ryd( 2p)     0.00011       2.26113
 
   315    H   18  S      Val( 1S)     0.38994       0.14936
   316    H   18  S      Ryd( 2S)     0.00336       0.39148
   317    H   18  S      Ryd( 4S)     0.00048       1.85351
   318    H   18  S      Ryd( 3S)     0.00002       1.12965
   319    H   18  px     Ryd( 2p)     0.00012       2.32741
   320    H   18  py     Ryd( 2p)     0.00008       2.02508
   321    H   18  pz     Ryd( 2p)     0.00015       2.61628
 
   322    H   19  S      Val( 1S)     0.38870       0.15217
   323    H   19  S      Ryd( 2S)     0.00071       0.46408
   324    H   19  S      Ryd( 4S)     0.00045       1.89704
   325    H   19  S      Ryd( 3S)     0.00003       1.08942
   326    H   19  px     Ryd( 2p)     0.00008       2.14759
   327    H   19  py     Ryd( 2p)     0.00008       2.69229
   328    H   19  pz     Ryd( 2p)     0.00006       2.44424
 
   329    H   20  S      Val( 1S)     0.38831       0.15250
   330    H   20  S      Ryd( 2S)     0.00069       0.51025
   331    H   20  S      Ryd( 4S)     0.00049       1.87587
   332    H   20  S      Ryd( 3S)     0.00004       1.03153
   333    H   20  px     Ryd( 2p)     0.00008       2.11495
   334    H   20  py     Ryd( 2p)     0.00008       2.68515
   335    H   20  pz     Ryd( 2p)     0.00006       2.47428
 
   336    H   21  S      Val( 1S)     0.39270       0.16044
   337    H   21  S      Ryd( 2S)     0.00044       0.71653
   338    H   21  S      Ryd( 3S)     0.00095       1.29281
   339    H   21  S      Ryd( 4S)     0.00010       2.70999
   340    H   21  px     Ryd( 2p)     0.00013       2.35065
   341    H   21  py     Ryd( 2p)     0.00007       2.04110
   342    H   21  pz     Ryd( 2p)     0.00016       2.65867
 
   343    H   22  S      Val( 1S)     0.39024       0.16800
   344    H   22  S      Ryd( 2S)     0.00052       0.63581
   345    H   22  S      Ryd( 4S)     0.00038       1.66714
   346    H   22  S      Ryd( 3S)     0.00006       1.15040
   347    H   22  px     Ryd( 2p)     0.00009       2.14396
   348    H   22  py     Ryd( 2p)     0.00013       2.65446
   349    H   22  pz     Ryd( 2p)     0.00008       2.14785
 
   350    H   23  S      Val( 1S)     0.39310       0.15480
   351    H   23  S      Ryd( 2S)     0.00060       0.52250
   352    H   23  S      Ryd( 4S)     0.00040       1.88462
   353    H   23  S      Ryd( 3S)     0.00004       1.04605
   354    H   23  px     Ryd( 2p)     0.00011       2.37175
   355    H   23  py     Ryd( 2p)     0.00007       2.05318
   356    H   23  pz     Ryd( 2p)     0.00011       2.52682
 
   357    H   24  S      Val( 1S)     0.41672       0.13694
   358    H   24  S      Ryd( 2S)     0.00065       0.46877
   359    H   24  S      Ryd( 3S)     0.00082       1.58936
   360    H   24  S      Ryd( 4S)     0.00008       2.68492
   361    H   24  px     Ryd( 2p)     0.00007       2.11197
   362    H   24  py     Ryd( 2p)     0.00022       2.67426
   363    H   24  pz     Ryd( 2p)     0.00012       2.12731
 
   364    H   25  S      Val( 1S)     0.26395       0.20293
   365    H   25  S      Ryd( 2S)     0.00270       0.33901
   366    H   25  S      Ryd( 4S)     0.00030       2.29894
   367    H   25  S      Ryd( 3S)     0.00009       0.78324
   368    H   25  px     Ryd( 2p)     0.00053       2.13417
   369    H   25  py     Ryd( 2p)     0.00082       1.72420
   370    H   25  pz     Ryd( 2p)     0.00049       2.45246
 
   371    H   26  S      Val( 1S)     0.41761       0.10784
   372    H   26  S      Ryd( 2S)     0.00085       0.44345
   373    H   26  S      Ryd( 4S)     0.00053       1.62329
   374    H   26  S      Ryd( 3S)     0.00002       1.17251
   375    H   26  px     Ryd( 2p)     0.00005       1.98602
   376    H   26  py     Ryd( 2p)     0.00010       1.92618
   377    H   26  pz     Ryd( 2p)     0.00019       2.80481
 
   378    H   27  S      Val( 1S)     0.40284       0.11415
   379    H   27  S      Ryd( 2S)     0.00123       0.32375
   380    H   27  S      Ryd( 4S)     0.00031       1.51281
   381    H   27  S      Ryd( 3S)     0.00004       1.19931
   382    H   27  px     Ryd( 2p)     0.00013       2.51331
   383    H   27  py     Ryd( 2p)     0.00012       2.02567
   384    H   27  pz     Ryd( 2p)     0.00009       2.06282
 
   385    H   28  S      Val( 1S)     0.40476       0.11463
   386    H   28  S      Ryd( 2S)     0.00124       0.33212
   387    H   28  S      Ryd( 4S)     0.00034       1.52254
   388    H   28  S      Ryd( 3S)     0.00004       1.20964
   389    H   28  px     Ryd( 2p)     0.00008       2.08630
   390    H   28  py     Ryd( 2p)     0.00016       2.30186
   391    H   28  pz     Ryd( 2p)     0.00012       2.23100
 
   392    H   29  S      Val( 1S)     0.41804       0.11159
   393    H   29  S      Ryd( 2S)     0.00064       0.41408
   394    H   29  S      Ryd( 4S)     0.00052       1.58463
   395    H   29  S      Ryd( 3S)     0.00003       1.29778
   396    H   29  px     Ryd( 2p)     0.00005       2.01409
   397    H   29  py     Ryd( 2p)     0.00011       2.01306
   398    H   29  pz     Ryd( 2p)     0.00020       2.68643

 WARNING:  Population inversion found on atom  C    2
           Population inversion found on atom  C    3
           Population inversion found on atom  C    4
           Population inversion found on atom  C    5
           Population inversion found on atom  C    6
           Population inversion found on atom  C    7
           Population inversion found on atom  C    8
           Population inversion found on atom  C   11
           Population inversion found on atom  C   12
           Population inversion found on atom  H   14
           Population inversion found on atom  H   15
           Population inversion found on atom  H   16
           Population inversion found on atom  H   17
           Population inversion found on atom  H   18
           Population inversion found on atom  H   19
           Population inversion found on atom  H   20
           Population inversion found on atom  H   21
           Population inversion found on atom  H   22
           Population inversion found on atom  H   23
           Population inversion found on atom  H   24
           Population inversion found on atom  H   25
           Population inversion found on atom  H   26
           Population inversion found on atom  H   27
           Population inversion found on atom  H   28
           Population inversion found on atom  H   29


 Summary of Natural Population Analysis:                  
                                                          
                                       Natural Population 
                Natural  -----------------------------------------------
    Atom  No    Charge         Core      Valence    Rydberg      Total
 -----------------------------------------------------------------------
      C    1   -0.19231      0.99962     2.18474    0.00795     3.19231
      C    2   -0.19465      0.99962     2.18594    0.00909     3.19465
      C    3   -0.12279      0.99958     2.10866    0.01455     3.12279
      C    4   -0.21143      0.99954     2.19820    0.01370     3.21143
      C    5    0.30985      0.99948     1.66728    0.02339     2.69015
      C    6   -0.12934      0.99951     2.11736    0.01248     3.12934
      C    7   -0.19819      0.99960     2.18941    0.00918     3.19819
      C    8    0.06620      0.99952     1.92026    0.01402     2.93380
      O    9   -0.37549      0.99989     3.36919    0.00641     4.37549
      O   10   -0.30667      0.99987     3.29792    0.00888     4.30667
      C   11   -0.02372      0.99958     2.01191    0.01223     3.02372
      C   12   -0.02075      0.99958     2.00909    0.01207     3.02075
      O   13   -0.31247      0.99987     3.30366    0.00894     4.31247
      H   14    0.10338      0.00000     0.39517    0.00146     0.39662
      H   15    0.09784      0.00000     0.40119    0.00097     0.40216
      H   16    0.10472      0.00000     0.39386    0.00141     0.39528
      H   17    0.09829      0.00000     0.40073    0.00099     0.40171
      H   18    0.10586      0.00000     0.38994    0.00421     0.39414
      H   19    0.10988      0.00000     0.38870    0.00142     0.39012
      H   20    0.11024      0.00000     0.38831    0.00145     0.38976
      H   21    0.10544      0.00000     0.39270    0.00186     0.39456
      H   22    0.10851      0.00000     0.39024    0.00125     0.39149
      H   23    0.10557      0.00000     0.39310    0.00133     0.39443
      H   24    0.08133      0.00000     0.41672    0.00195     0.41867
      H   25    0.23113      0.00000     0.26395    0.00492     0.26887
      H   26    0.08064      0.00000     0.41761    0.00175     0.41936
      H   27    0.09524      0.00000     0.40284    0.00192     0.40476
      H   28    0.09327      0.00000     0.40476    0.00197     0.40673
      H   29    0.08042      0.00000     0.41804    0.00154     0.41958
 =======================================================================
   * Total *    0.00000     12.99525    36.82146    0.18328    50.00000

                                 Natural Population      
 --------------------------------------------------------
   Core                      12.99525 ( 99.9635% of  13)
   Valence                   36.82146 ( 99.5175% of  37)
   Natural Minimal Basis     49.81672 ( 99.6334% of  50)
   Natural Rydberg Basis      0.18328 (  0.3666% of  50)
 --------------------------------------------------------

    Atom  No          Natural Electron Configuration
 ----------------------------------------------------------------------------
      C    1      [core]2S( 0.51)2p( 1.68)
      C    2      [core]2S( 0.51)2p( 1.68)
      C    3      [core]2S( 0.48)2p( 1.63)3p( 0.01)
      C    4      [core]2S( 0.51)2p( 1.69)
      C    5      [core]2S( 0.43)2p( 1.24)3p( 0.01)3d( 0.01)
      C    6      [core]2S( 0.48)2p( 1.64)3p( 0.01)
      C    7      [core]2S( 0.51)2p( 1.68)4p( 0.01)
      C    8      [core]2S( 0.47)2p( 1.45)3p( 0.01)
      O    9      [core]2S( 0.84)2p( 2.53)
      O   10      [core]2S( 0.81)2p( 2.49)
      C   11      [core]2S( 0.51)2p( 1.50)
      C   12      [core]2S( 0.51)2p( 1.50)
      O   13      [core]2S( 0.81)2p( 2.49)3p( 0.01)
      H   14            1S( 0.40)
      H   15            1S( 0.40)
      H   16            1S( 0.39)
      H   17            1S( 0.40)
      H   18            1S( 0.39)
      H   19            1S( 0.39)
      H   20            1S( 0.39)
      H   21            1S( 0.39)
      H   22            1S( 0.39)
      H   23            1S( 0.39)
      H   24            1S( 0.42)
      H   25            1S( 0.26)
      H   26            1S( 0.42)
      H   27            1S( 0.40)
      H   28            1S( 0.40)
      H   29            1S( 0.42)


 NBO analysis skipped by request.
 1\1\GINC-NODE215\SP\UB3LYP\6-311++G(d,p)\C10H16O3(1-,2)\VSC10255\09-De
 c-2020\0\\# B3LYP/6-311++G(d,p) empiricaldispersion=gd3bj scf=xqc pop=
 npa geom=check\\CID_73023141_JID_3451_Energie_anion\\-1,2\C,0,1.825823
 1895,1.0519485858,-0.6521688892\C,0,2.6497675797,0.0375621542,0.189133
 0806\C,0,1.8608357309,-1.2780460258,0.3047524604\C,0,0.4354943465,-0.9
 816990925,0.8005961176\C,0,-0.3252186904,-0.15121045,-0.2555749093\C,0
 ,0.657710988,0.3211825814,-1.3385730139\C,0,1.1935160594,-0.9096897693
 ,-2.0914926459\C,0,1.7669609592,-1.9343356902,-1.0864957605\O,0,3.0424
 58701,-2.3492089893,-1.5790312897\O,0,-0.9761612722,0.9417368896,0.392
 8740978\C,0,-2.2510318928,1.091586363,-0.2185171461\C,0,-2.6189872755,
 -0.3553427461,-0.5257460402\O,0,-1.3645998621,-0.9199355162,-0.8870634
 742\H,0,1.4253560248,1.851990279,-0.0218001759\H,0,2.4558909475,1.5248
 156149,-1.4132490508\H,0,3.6115658245,-0.1732051307,-0.2879710092\H,0,
 2.8606995733,0.439401584,1.1863698696\H,0,2.3612820394,-1.9661714951,1
 .000095105\H,0,0.4687186379,-0.4132111515,1.7353315432\H,0,-0.12607650
 42,-1.9035080821,0.9848281677\H,0,0.1279356425,0.9909873818,-2.0246377
 203\H,0,0.407097717,-1.3610497806,-2.6999380441\H,0,2.0049851661,-0.60
 47208732,-2.7608521068\H,0,1.0953349117,-2.8044038093,-1.0182032302\H,
 0,3.3924228152,-3.0074775484,-0.9578894608\H,0,-2.1872557312,1.6914459
 13,-1.1383427546\H,0,-2.9163486733,1.5875198833,0.4925032201\H,0,-3.31
 14514221,-0.474004082,-1.3640241241\H,0,-3.0347955301,-0.8543169976,0.
 3619771837\\Version=ES64L-G16RevA.03\State=2-A\HF=-616.5672585\S2=0.75
 0044\S2-1=0.\S2A=0.75\RMSD=2.724e-09\Dipole=0.3871461,0.9240921,-0.548
 9288\Quadrupole=-14.293756,4.5464794,9.7472767,14.4722338,-1.7550881,0
 .5228818\PG=C01 [X(C10H16O3)]\\@


 ADVERTISING--  HE WHO HAS SOMETHING TO SELL AND GOES AND WHISPERS
                IN A WELL, IS NOT SO APT TO GET THE DOLLARS AS HE
                WHO CLIMBS A TREE AND HOLLERS.

                   -- FROM THE BACK OF A SUGAR PACKET
 Job cpu time:       0 days  0 hours 39 minutes  3.3 seconds.
 Elapsed time:       0 days  0 hours  9 minutes 47.1 seconds.
 File lengths (MBytes):  RWF=    204 Int=      0 D2E=      0 Chk=     20 Scr=      8
 Normal termination of Gaussian 16 at Wed Dec  9 23:47:07 2020.
