 Entering Gaussian System, Link 0=g16
 Initial command:
 /apps/brussel/CO7/ivybridge-ib/software/Gaussian/G16.A.03-intel-2017b/g16/l1.exe "/scratch/brussel/102/vsc10255/Gau-35783.inp" -scrdir="/scratch/brussel/102/vsc10255/"
 Entering Link 1 = /apps/brussel/CO7/ivybridge-ib/software/Gaussian/G16.A.03-intel-2017b/g16/l1.exe.bin PID=     36413.
  
 Copyright (c) 1988,1990,1992,1993,1995,1998,2003,2009,2016,
            Gaussian, Inc.  All Rights Reserved.
  
 This is part of the Gaussian(R) 16 program.  It is based on
 the Gaussian(R) 09 system (copyright 2009, Gaussian, Inc.),
 the Gaussian(R) 03 system (copyright 2003, Gaussian, Inc.),
 the Gaussian(R) 98 system (copyright 1998, Gaussian, Inc.),
 the Gaussian(R) 94 system (copyright 1995, Gaussian, Inc.),
 the Gaussian 92(TM) system (copyright 1992, Gaussian, Inc.),
 the Gaussian 90(TM) system (copyright 1990, Gaussian, Inc.),
 the Gaussian 88(TM) system (copyright 1988, Gaussian, Inc.),
 the Gaussian 86(TM) system (copyright 1986, Carnegie Mellon
 University), and the Gaussian 82(TM) system (copyright 1983,
 Carnegie Mellon University). Gaussian is a federally registered
 trademark of Gaussian, Inc.
  
 This software contains proprietary and confidential information,
 including trade secrets, belonging to Gaussian, Inc.
  
 This software is provided under written license and may be
 used, copied, transmitted, or stored only in accord with that
 written license.
  
 The following legend is applicable only to US Government
 contracts under FAR:
  
                    RESTRICTED RIGHTS LEGEND
  
 Use, reproduction and disclosure by the US Government is
 subject to restrictions as set forth in subparagraphs (a)
 and (c) of the Commercial Computer Software - Restricted
 Rights clause in FAR 52.227-19.
  
 Gaussian, Inc.
 340 Quinnipiac St., Bldg. 40, Wallingford CT 06492
  
  
 ---------------------------------------------------------------
 Warning -- This program may not be used in any manner that
 competes with the business of Gaussian, Inc. or will provide
 assistance to any competitor of Gaussian, Inc.  The licensee
 of this program is prohibited from giving any competitor of
 Gaussian, Inc. access to this program.  By using this program,
 the user acknowledges that Gaussian, Inc. is engaged in the
 business of creating and licensing software in the field of
 computational chemistry and represents and warrants to the
 licensee that it is not a competitor of Gaussian, Inc. and that
 it will not use this program in any manner prohibited above.
 ---------------------------------------------------------------
  

 Cite this work as:
 Gaussian 16, Revision A.03,
 M. J. Frisch, G. W. Trucks, H. B. Schlegel, G. E. Scuseria, 
 M. A. Robb, J. R. Cheeseman, G. Scalmani, V. Barone, 
 G. A. Petersson, H. Nakatsuji, X. Li, M. Caricato, A. V. Marenich, 
 J. Bloino, B. G. Janesko, R. Gomperts, B. Mennucci, H. P. Hratchian, 
 J. V. Ortiz, A. F. Izmaylov, J. L. Sonnenberg, D. Williams-Young, 
 F. Ding, F. Lipparini, F. Egidi, J. Goings, B. Peng, A. Petrone, 
 T. Henderson, D. Ranasinghe, V. G. Zakrzewski, J. Gao, N. Rega, 
 G. Zheng, W. Liang, M. Hada, M. Ehara, K. Toyota, R. Fukuda, 
 J. Hasegawa, M. Ishida, T. Nakajima, Y. Honda, O. Kitao, H. Nakai, 
 T. Vreven, K. Throssell, J. A. Montgomery, Jr., J. E. Peralta, 
 F. Ogliaro, M. J. Bearpark, J. J. Heyd, E. N. Brothers, K. N. Kudin, 
 V. N. Staroverov, T. A. Keith, R. Kobayashi, J. Normand, 
 K. Raghavachari, A. P. Rendell, J. C. Burant, S. S. Iyengar, 
 J. Tomasi, M. Cossi, J. M. Millam, M. Klene, C. Adamo, R. Cammi, 
 J. W. Ochterski, R. L. Martin, K. Morokuma, O. Farkas, 
 J. B. Foresman, and D. J. Fox, Gaussian, Inc., Wallingford CT, 2016.
 
 ******************************************
 Gaussian 16:  ES64L-G16RevA.03 25-Dec-2016
                 8-Dec-2020 
 ******************************************
 %chk=JID_832.chk
 %mem=8GB
 %nprocshared=4
 Will use up to    4 processors via shared memory.
 -----------------------------------------------------------
 # opt freq B3LYP/6-31G(d) empiricaldispersion=gd3bj scf=xqc
 -----------------------------------------------------------
 1/18=20,19=15,26=3,38=1/1,3;
 2/9=110,12=2,17=6,18=5,40=1/2;
 3/5=1,6=6,7=1,11=2,25=1,30=1,71=1,74=-5,124=41/1,2,3;
 4//1;
 5/5=2,8=3,13=1,38=5/2,8;
 6/7=2,8=2,9=2,10=2,28=1/1;
 7//1,2,3,16;
 1/18=20,19=15,26=3/3(2);
 2/9=110/2;
 99//99;
 2/9=110/2;
 3/5=1,6=6,7=1,11=2,25=1,30=1,71=1,74=-5,124=41/1,2,3;
 4/5=5,16=3,69=1/1;
 5/5=2,8=3,13=1,38=5/2,8;
 7//1,2,3,16;
 1/18=20,19=15,26=3/3(-5);
 2/9=110/2;
 6/7=2,8=2,9=2,10=2,19=2,28=1/1;
 99/9=1/99;
 -----------------------------
 CID_59745398_JID_832_neutraal
 -----------------------------
 Symbolic Z-matrix:
 Charge =  0 Multiplicity = 1
 C                    -1.65      0.084     0.715 
 C                    -1.1153    1.19232  -0.17879 
 C                     0.22358   0.62228  -0.60029 
 C                    -0.01425  -0.8792   -0.6623 
 O                    -1.13563  -1.16155   0.20623 
 C                     1.29431  -1.44143  -0.13913 
 C                     1.67102  -0.42139   0.92059 
 O                     1.20833   0.855     0.43568 
 S                     1.19264  -3.139     0.49397 
 S                    -2.20989   1.45932  -1.6246 
 H                    -2.74173   0.03346   0.77389 
 H                    -1.26863   0.19475   1.73662 
 H                    -1.0308    2.13688   0.36651 
 H                     0.63308   1.03901  -1.52603 
 H                    -0.26947  -1.23658  -1.66492 
 H                     2.04435  -1.4107   -0.93865 
 H                     1.17974  -0.60239   1.88328 
 H                     2.75119  -0.36759   1.08708 
 H                     0.0067   -2.981     1.10761 
 H                    -2.4109    0.16362  -1.91503 
 

 GradGradGradGradGradGradGradGradGradGradGradGradGradGradGradGradGradGrad
 Berny optimization.
 Initialization pass.
                           ----------------------------
                           !    Initial Parameters    !
                           ! (Angstroms and Degrees)  !
 --------------------------                            --------------------------
 ! Name  Definition              Value          Derivative Info.                !
 --------------------------------------------------------------------------------
 ! R1    R(1,2)                  1.5209         estimate D2E/DX2                !
 ! R2    R(1,5)                  1.4404         estimate D2E/DX2                !
 ! R3    R(1,11)                 1.0945         estimate D2E/DX2                !
 ! R4    R(1,12)                 1.0961         estimate D2E/DX2                !
 ! R5    R(2,3)                  1.515          estimate D2E/DX2                !
 ! R6    R(2,10)                 1.833          estimate D2E/DX2                !
 ! R7    R(2,13)                 1.0939         estimate D2E/DX2                !
 ! R8    R(3,4)                  1.5215         estimate D2E/DX2                !
 ! R9    R(3,8)                  1.4481         estimate D2E/DX2                !
 ! R10   R(3,14)                 1.0947         estimate D2E/DX2                !
 ! R11   R(4,5)                  1.4462         estimate D2E/DX2                !
 ! R12   R(4,6)                  1.5173         estimate D2E/DX2                !
 ! R13   R(4,15)                 1.0946         estimate D2E/DX2                !
 ! R14   R(6,7)                  1.5184         estimate D2E/DX2                !
 ! R15   R(6,9)                  1.8146         estimate D2E/DX2                !
 ! R16   R(6,16)                 1.0967         estimate D2E/DX2                !
 ! R17   R(7,8)                  1.4417         estimate D2E/DX2                !
 ! R18   R(7,17)                 1.0959         estimate D2E/DX2                !
 ! R19   R(7,18)                 1.0942         estimate D2E/DX2                !
 ! R20   R(9,19)                 1.3446         estimate D2E/DX2                !
 ! R21   R(10,20)                1.343          estimate D2E/DX2                !
 ! A1    A(2,1,5)              107.2789         estimate D2E/DX2                !
 ! A2    A(2,1,11)             114.5794         estimate D2E/DX2                !
 ! A3    A(2,1,12)             110.5968         estimate D2E/DX2                !
 ! A4    A(5,1,11)             109.5891         estimate D2E/DX2                !
 ! A5    A(5,1,12)             106.9978         estimate D2E/DX2                !
 ! A6    A(11,1,12)            107.5523         estimate D2E/DX2                !
 ! A7    A(1,2,3)              101.5373         estimate D2E/DX2                !
 ! A8    A(1,2,10)             111.0848         estimate D2E/DX2                !
 ! A9    A(1,2,13)             111.3115         estimate D2E/DX2                !
 ! A10   A(3,2,10)             111.2909         estimate D2E/DX2                !
 ! A11   A(3,2,13)             113.2852         estimate D2E/DX2                !
 ! A12   A(10,2,13)            108.2728         estimate D2E/DX2                !
 ! A13   A(2,3,4)              104.1533         estimate D2E/DX2                !
 ! A14   A(2,3,8)              109.9659         estimate D2E/DX2                !
 ! A15   A(2,3,14)             115.001          estimate D2E/DX2                !
 ! A16   A(4,3,8)              107.1002         estimate D2E/DX2                !
 ! A17   A(4,3,14)             113.5589         estimate D2E/DX2                !
 ! A18   A(8,3,14)             106.823          estimate D2E/DX2                !
 ! A19   A(3,4,5)              106.8219         estimate D2E/DX2                !
 ! A20   A(3,4,6)              102.5222         estimate D2E/DX2                !
 ! A21   A(3,4,15)             113.3279         estimate D2E/DX2                !
 ! A22   A(5,4,6)              112.9112         estimate D2E/DX2                !
 ! A23   A(5,4,15)             107.7918         estimate D2E/DX2                !
 ! A24   A(6,4,15)             113.325          estimate D2E/DX2                !
 ! A25   A(1,5,4)              108.6743         estimate D2E/DX2                !
 ! A26   A(4,6,7)              101.87           estimate D2E/DX2                !
 ! A27   A(4,6,9)              114.7478         estimate D2E/DX2                !
 ! A28   A(4,6,16)             109.1518         estimate D2E/DX2                !
 ! A29   A(7,6,9)              113.5074         estimate D2E/DX2                !
 ! A30   A(7,6,16)             108.6818         estimate D2E/DX2                !
 ! A31   A(9,6,16)             108.5951         estimate D2E/DX2                !
 ! A32   A(6,7,8)              106.2846         estimate D2E/DX2                !
 ! A33   A(6,7,17)             113.0131         estimate D2E/DX2                !
 ! A34   A(6,7,18)             112.59           estimate D2E/DX2                !
 ! A35   A(8,7,17)             107.3276         estimate D2E/DX2                !
 ! A36   A(8,7,18)             108.9328         estimate D2E/DX2                !
 ! A37   A(17,7,18)            108.4816         estimate D2E/DX2                !
 ! A38   A(3,8,7)              108.4565         estimate D2E/DX2                !
 ! A39   A(6,9,19)              95.665          estimate D2E/DX2                !
 ! A40   A(2,10,20)             96.8588         estimate D2E/DX2                !
 ! D1    D(5,1,2,3)            -31.393          estimate D2E/DX2                !
 ! D2    D(5,1,2,10)            87.0242         estimate D2E/DX2                !
 ! D3    D(5,1,2,13)          -152.2375         estimate D2E/DX2                !
 ! D4    D(11,1,2,3)          -153.2894         estimate D2E/DX2                !
 ! D5    D(11,1,2,10)          -34.8722         estimate D2E/DX2                !
 ! D6    D(11,1,2,13)           85.8661         estimate D2E/DX2                !
 ! D7    D(12,1,2,3)            84.9637         estimate D2E/DX2                !
 ! D8    D(12,1,2,10)         -156.6191         estimate D2E/DX2                !
 ! D9    D(12,1,2,13)          -35.8808         estimate D2E/DX2                !
 ! D10   D(2,1,5,4)             17.4643         estimate D2E/DX2                !
 ! D11   D(11,1,5,4)           142.4291         estimate D2E/DX2                !
 ! D12   D(12,1,5,4)          -101.2428         estimate D2E/DX2                !
 ! D13   D(1,2,3,4)             32.7463         estimate D2E/DX2                !
 ! D14   D(1,2,3,8)            -81.726          estimate D2E/DX2                !
 ! D15   D(1,2,3,14)           157.6652         estimate D2E/DX2                !
 ! D16   D(10,2,3,4)           -85.5227         estimate D2E/DX2                !
 ! D17   D(10,2,3,8)           160.0049         estimate D2E/DX2                !
 ! D18   D(10,2,3,14)           39.3961         estimate D2E/DX2                !
 ! D19   D(13,2,3,4)           152.1971         estimate D2E/DX2                !
 ! D20   D(13,2,3,8)            37.7247         estimate D2E/DX2                !
 ! D21   D(13,2,3,14)          -82.8841         estimate D2E/DX2                !
 ! D22   D(1,2,10,20)          -43.5359         estimate D2E/DX2                !
 ! D23   D(3,2,10,20)           68.8171         estimate D2E/DX2                !
 ! D24   D(13,2,10,20)        -166.0502         estimate D2E/DX2                !
 ! D25   D(2,3,4,5)            -23.7365         estimate D2E/DX2                !
 ! D26   D(2,3,4,6)           -142.6682         estimate D2E/DX2                !
 ! D27   D(2,3,4,15)            94.8194         estimate D2E/DX2                !
 ! D28   D(8,3,4,5)             92.752          estimate D2E/DX2                !
 ! D29   D(8,3,4,6)            -26.1797         estimate D2E/DX2                !
 ! D30   D(8,3,4,15)          -148.6921         estimate D2E/DX2                !
 ! D31   D(14,3,4,5)          -149.5715         estimate D2E/DX2                !
 ! D32   D(14,3,4,6)            91.4968         estimate D2E/DX2                !
 ! D33   D(14,3,4,15)          -31.0156         estimate D2E/DX2                !
 ! D34   D(2,3,8,7)            117.7473         estimate D2E/DX2                !
 ! D35   D(4,3,8,7)              5.1685         estimate D2E/DX2                !
 ! D36   D(14,3,8,7)          -116.8296         estimate D2E/DX2                !
 ! D37   D(3,4,5,1)              4.0145         estimate D2E/DX2                !
 ! D38   D(6,4,5,1)            115.9579         estimate D2E/DX2                !
 ! D39   D(15,4,5,1)          -118.092          estimate D2E/DX2                !
 ! D40   D(3,4,6,7)             35.8032         estimate D2E/DX2                !
 ! D41   D(3,4,6,9)            158.8748         estimate D2E/DX2                !
 ! D42   D(3,4,6,16)           -78.9989         estimate D2E/DX2                !
 ! D43   D(5,4,6,7)            -78.7608         estimate D2E/DX2                !
 ! D44   D(5,4,6,9)             44.3108         estimate D2E/DX2                !
 ! D45   D(5,4,6,16)           166.4371         estimate D2E/DX2                !
 ! D46   D(15,4,6,7)           158.3175         estimate D2E/DX2                !
 ! D47   D(15,4,6,9)           -78.6109         estimate D2E/DX2                !
 ! D48   D(15,4,6,16)           43.5154         estimate D2E/DX2                !
 ! D49   D(4,6,7,8)            -34.0264         estimate D2E/DX2                !
 ! D50   D(4,6,7,17)            83.4376         estimate D2E/DX2                !
 ! D51   D(4,6,7,18)          -153.2127         estimate D2E/DX2                !
 ! D52   D(9,6,7,8)           -157.9378         estimate D2E/DX2                !
 ! D53   D(9,6,7,17)           -40.4737         estimate D2E/DX2                !
 ! D54   D(9,6,7,18)            82.876          estimate D2E/DX2                !
 ! D55   D(16,6,7,8)            81.1215         estimate D2E/DX2                !
 ! D56   D(16,6,7,17)         -161.4145         estimate D2E/DX2                !
 ! D57   D(16,6,7,18)          -38.0648         estimate D2E/DX2                !
 ! D58   D(4,6,9,19)           -40.4047         estimate D2E/DX2                !
 ! D59   D(7,6,9,19)            76.1782         estimate D2E/DX2                !
 ! D60   D(16,6,9,19)         -162.8323         estimate D2E/DX2                !
 ! D61   D(6,7,8,3)             18.2446         estimate D2E/DX2                !
 ! D62   D(17,7,8,3)          -102.9393         estimate D2E/DX2                !
 ! D63   D(18,7,8,3)           139.7972         estimate D2E/DX2                !
 --------------------------------------------------------------------------------
 Trust Radius=3.00D-01 FncErr=1.00D-07 GrdErr=1.00D-06 EigMax=2.50D+02 EigMin=1.00D-04
 Number of steps in this run=    120 maximum allowed number of steps=    120.
 GradGradGradGradGradGradGradGradGradGradGradGradGradGradGradGradGradGrad

                          Input orientation:                          
 ---------------------------------------------------------------------
 Center     Atomic      Atomic             Coordinates (Angstroms)
 Number     Number       Type             X           Y           Z
 ---------------------------------------------------------------------
      1          6           0       -1.650000    0.084000    0.715000
      2          6           0       -1.115300    1.192320   -0.178790
      3          6           0        0.223580    0.622280   -0.600290
      4          6           0       -0.014250   -0.879200   -0.662300
      5          8           0       -1.135630   -1.161550    0.206230
      6          6           0        1.294310   -1.441430   -0.139130
      7          6           0        1.671020   -0.421390    0.920590
      8          8           0        1.208330    0.855000    0.435680
      9         16           0        1.192640   -3.139000    0.493970
     10         16           0       -2.209890    1.459320   -1.624600
     11          1           0       -2.741730    0.033460    0.773890
     12          1           0       -1.268630    0.194750    1.736620
     13          1           0       -1.030800    2.136880    0.366510
     14          1           0        0.633080    1.039010   -1.526030
     15          1           0       -0.269470   -1.236580   -1.664920
     16          1           0        2.044350   -1.410700   -0.938650
     17          1           0        1.179740   -0.602390    1.883280
     18          1           0        2.751190   -0.367590    1.087080
     19          1           0        0.006700   -2.981000    1.107610
     20          1           0       -2.410900    0.163620   -1.915030
 ---------------------------------------------------------------------
                    Distance matrix (angstroms):
                    1          2          3          4          5
     1  C    0.000000
     2  C    1.520900   0.000000
     3  C    2.351603   1.514994   0.000000
     4  C    2.345291   2.395264   1.521463   0.000000
     5  O    1.440423   2.385237   2.383270   1.446222   0.000000
     6  C    3.424242   3.569934   2.370238   1.517280   2.470266
     7  C    3.365540   3.402393   2.344655   2.356961   2.989219
     8  O    2.973636   2.427059   1.448145   2.389082   3.100527
     9  S    4.303160   4.953739   4.035308   2.810737   3.068215
    10  S    2.771049   1.832971   2.769770   3.348960   3.372674
    11  H    1.094485   2.212652   3.320865   3.214769   2.080828
    12  H    1.096091   2.165052   2.805463   2.912328   2.049227
    13  H    2.172365   1.093931   2.191389   3.344931   3.303985
    14  H    3.338669   2.212553   1.094691   2.201044   3.312329
    15  H    3.051854   2.970449   2.198157   1.094580   2.063266
    16  H    4.314732   4.163711   2.750036   2.143991   3.388967
    17  H    3.137425   3.569359   2.929536   2.825281   2.913090
    18  H    4.439916   4.357234   3.196228   3.312059   4.063698
    19  H    3.506141   4.508914   3.993443   2.747833   2.329764
    20  H    2.739045   2.398194   2.979831   2.898403   2.807514
                    6          7          8          9         10
     6  C    0.000000
     7  C    1.518354   0.000000
     8  O    2.368837   1.441663   0.000000
     9  S    1.814634   2.792178   3.994456   0.000000
    10  S    4.785435   5.007647   4.036606   6.100008   0.000000
    11  H    4.393009   4.438555   4.048739   5.061830   2.840543
    12  H    3.572700   3.112407   2.874666   4.326190   3.712534
    13  H    4.297221   3.761859   2.581028   5.726678   2.411195
    14  H    2.917756   3.032497   2.052578   4.674321   2.875562
    15  H    2.194403   3.333901   3.312268   3.227658   3.321857
    16  H    1.096693   2.138898   2.778688   2.401006   5.177461
    17  H    2.192546   1.095851   2.054349   2.892186   5.295797
    18  H    2.186143   1.094249   2.073515   3.234435   5.941643
    19  H    2.362748   3.058846   4.075574   1.344608   5.665217
    20  H    4.411189   5.004503   4.370660   5.449411   1.342979
                   11         12         13         14         15
    11  H    0.000000
    12  H    1.767169   0.000000
    13  H    2.741827   2.388647   0.000000
    14  H    4.205961   3.869646   2.748731   0.000000
    15  H    3.697684   3.823284   4.010806   2.451978   0.000000
    16  H    5.284407   4.550865   4.872916   2.887521   2.431368
    17  H    4.124679   2.579042   3.832842   3.823143   3.884859
    18  H    5.516439   4.110606   4.592934   3.645992   4.177683
    19  H    4.092946   3.479584   5.274309   4.846534   3.287278
    20  H    2.712320   3.826264   3.317206   3.191151   2.570766
                   16         17         18         19         20
    16  H    0.000000
    17  H    3.060099   0.000000
    18  H    2.385641   1.777223   0.000000
    19  H    3.287102   2.763236   3.789797   0.000000
    20  H    4.825044   5.282672   5.995167   4.986961   0.000000
 Stoichiometry    C6H10O2S2
 Framework group  C1[X(C6H10O2S2)]
 Deg. of freedom    54
 Full point group                 C1      NOp   1
 Largest Abelian subgroup         C1      NOp   1
 Largest concise Abelian subgroup C1      NOp   1
                         Standard orientation:                         
 ---------------------------------------------------------------------
 Center     Atomic      Atomic             Coordinates (Angstroms)
 Number     Number       Type             X           Y           Z
 ---------------------------------------------------------------------
      1          6           0       -1.021445   -0.571131    1.345363
      2          6           0       -1.757290    0.412259    0.448360
      3          6           0       -0.642323    0.884792   -0.462008
      4          6           0        0.263970   -0.329321   -0.601333
      5          8           0        0.033796   -1.158968    0.560677
      6          6           0        1.647583    0.293156   -0.617985
      7          6           0        1.482368    1.447650    0.354253
      8          8           0        0.128981    1.918609    0.196352
      9         16           0        2.995150   -0.838671   -0.175351
     10         16           0       -3.082115   -0.425732   -0.501583
     11          1           0       -1.650233   -1.362112    1.765924
     12          1           0       -0.544929   -0.047610    2.182186
     13          1           0       -2.211033    1.219209    1.031143
     14          1           0       -0.971572    1.297371   -1.421030
     15          1           0        0.048774   -0.931159   -1.489919
     16          1           0        1.846829    0.700565   -1.616512
     17          1           0        1.603230    1.146837    1.401054
     18          1           0        2.171543    2.272332    0.148535
     19          1           0        2.330368   -1.454477    0.818037
     20          1           0       -2.370922   -1.512075   -0.844593
 ---------------------------------------------------------------------
 Rotational constants (GHZ):           2.1068433           0.6261488           0.5585245
 Standard basis: 6-31G(d) (6D, 7F)
 There are   178 symmetry adapted cartesian basis functions of A   symmetry.
 There are   178 symmetry adapted basis functions of A   symmetry.
   178 basis functions,   368 primitive gaussians,   178 cartesian basis functions
    47 alpha electrons       47 beta electrons
       nuclear repulsion energy       762.3925025434 Hartrees.
 NAtoms=   20 NActive=   20 NUniq=   20 SFac= 1.00D+00 NAtFMM=   60 NAOKFM=F Big=F
 Integral buffers will be    131072 words long.
 Raffenetti 2 integral format.
 Two-electron integral symmetry is turned on.
 Nuclear repulsion after empirical dispersion term =      762.3500499359 Hartrees.
 One-electron integrals computed using PRISM.
 NBasis=   178 RedAO= T EigKep=  1.54D-03  NBF=   178
 NBsUse=   178 1.00D-06 EigRej= -1.00D+00 NBFU=   178
 ExpMin= 1.17D-01 ExpMax= 2.19D+04 ExpMxC= 3.30D+03 IAcc=3 IRadAn=         5 AccDes= 0.00D+00
 Harris functional with IExCor=  402 and IRadAn=       5 diagonalized for initial guess.
 HarFok:  IExCor=  402 AccDes= 0.00D+00 IRadAn=         5 IDoV= 1 UseB2=F ITyADJ=14
 ICtDFT=  3500011 ScaDFX=  1.000000  1.000000  1.000000  1.000000
 FoFCou: FMM=F IPFlag=           0 FMFlag=      100000 FMFlg1=           0
         NFxFlg=           0 DoJE=T BraDBF=F KetDBF=T FulRan=T
         wScrn=  0.000000 ICntrl=       500 IOpCl=  0 I1Cent=   200000004 NGrid=           0
         NMat0=    1 NMatS0=      1 NMatT0=    0 NMatD0=    1 NMtDS0=    0 NMtDT0=    0
 Petite list used in FoFCou.
 Keep R1 ints in memory in canonical form, NReq=130925470.
 Requested convergence on RMS density matrix=1.00D-08 within  32 cycles.
 Requested convergence on MAX density matrix=1.00D-06.
 Requested convergence on             energy=1.00D-06.
 No special actions if energy rises.
 Integral accuracy reduced to 1.0D-05 until final iterations.
 Initial convergence to 1.0D-05 achieved.  Increase integral accuracy.
 SCF Done:  E(RB3LYP) =  -1181.48791914     A.U. after   13 cycles
            NFock= 13  Conv=0.68D-08     -V/T= 2.0050
 QCSCF skips out because SCF is already converged.

 **********************************************************************

            Population analysis using the SCF density.

 **********************************************************************

 Orbital symmetries:
       Occupied  (A) (A) (A) (A) (A) (A) (A) (A) (A) (A) (A) (A)
                 (A) (A) (A) (A) (A) (A) (A) (A) (A) (A) (A) (A)
                 (A) (A) (A) (A) (A) (A) (A) (A) (A) (A) (A) (A)
                 (A) (A) (A) (A) (A) (A) (A) (A) (A) (A) (A)
       Virtual   (A) (A) (A) (A) (A) (A) (A) (A) (A) (A) (A) (A)
                 (A) (A) (A) (A) (A) (A) (A) (A) (A) (A) (A) (A)
                 (A) (A) (A) (A) (A) (A) (A) (A) (A) (A) (A) (A)
                 (A) (A) (A) (A) (A) (A) (A) (A) (A) (A) (A) (A)
                 (A) (A) (A) (A) (A) (A) (A) (A) (A) (A) (A) (A)
                 (A) (A) (A) (A) (A) (A) (A) (A) (A) (A) (A) (A)
                 (A) (A) (A) (A) (A) (A) (A) (A) (A) (A) (A) (A)
                 (A) (A) (A) (A) (A) (A) (A) (A) (A) (A) (A) (A)
                 (A) (A) (A) (A) (A) (A) (A) (A) (A) (A) (A) (A)
                 (A) (A) (A) (A) (A) (A) (A) (A) (A) (A) (A) (A)
                 (A) (A) (A) (A) (A) (A) (A) (A) (A) (A) (A)
 The electronic state is 1-A.
 Alpha  occ. eigenvalues --  -88.88306 -88.87639 -19.16978 -19.15841 -10.25726
 Alpha  occ. eigenvalues --  -10.25359 -10.24963 -10.24141 -10.23863 -10.23564
 Alpha  occ. eigenvalues --   -7.94702  -7.94032  -5.91198  -5.90835  -5.90529
 Alpha  occ. eigenvalues --   -5.90155  -5.90127  -5.89473  -1.06498  -1.03071
 Alpha  occ. eigenvalues --   -0.83739  -0.82119  -0.75687  -0.71826  -0.70410
 Alpha  occ. eigenvalues --   -0.62835  -0.59792  -0.58616  -0.54118  -0.51584
 Alpha  occ. eigenvalues --   -0.48855  -0.47060  -0.45928  -0.43472  -0.41838
 Alpha  occ. eigenvalues --   -0.40878  -0.39995  -0.38961  -0.38481  -0.35950
 Alpha  occ. eigenvalues --   -0.34125  -0.33585  -0.32272  -0.27832  -0.26628
 Alpha  occ. eigenvalues --   -0.24819  -0.24043
 Alpha virt. eigenvalues --    0.01443   0.02867   0.05121   0.06419   0.07913
 Alpha virt. eigenvalues --    0.08838   0.11104   0.11581   0.12760   0.13844
 Alpha virt. eigenvalues --    0.15262   0.16026   0.16752   0.17297   0.18604
 Alpha virt. eigenvalues --    0.20876   0.21420   0.22292   0.26458   0.27676
 Alpha virt. eigenvalues --    0.29715   0.34283   0.34856   0.35683   0.35890
 Alpha virt. eigenvalues --    0.38871   0.39791   0.41602   0.41872   0.50292
 Alpha virt. eigenvalues --    0.50893   0.52792   0.54052   0.54762   0.55911
 Alpha virt. eigenvalues --    0.56441   0.57794   0.59529   0.63158   0.63943
 Alpha virt. eigenvalues --    0.66832   0.67858   0.69569   0.72864   0.73673
 Alpha virt. eigenvalues --    0.75201   0.77287   0.78581   0.80526   0.80918
 Alpha virt. eigenvalues --    0.82132   0.84138   0.85533   0.86237   0.87272
 Alpha virt. eigenvalues --    0.87835   0.88350   0.90967   0.91934   0.92850
 Alpha virt. eigenvalues --    0.95275   0.98076   0.99408   1.01461   1.01805
 Alpha virt. eigenvalues --    1.04055   1.08281   1.11976   1.15821   1.17142
 Alpha virt. eigenvalues --    1.17470   1.18840   1.20601   1.27316   1.34500
 Alpha virt. eigenvalues --    1.36494   1.41009   1.44200   1.48667   1.50170
 Alpha virt. eigenvalues --    1.55437   1.59311   1.63329   1.70127   1.72591
 Alpha virt. eigenvalues --    1.74969   1.77705   1.80348   1.82581   1.87479
 Alpha virt. eigenvalues --    1.88591   1.89246   1.95539   1.97735   2.02096
 Alpha virt. eigenvalues --    2.02761   2.05742   2.07203   2.09931   2.11515
 Alpha virt. eigenvalues --    2.14492   2.17550   2.24395   2.29485   2.31820
 Alpha virt. eigenvalues --    2.33758   2.40913   2.41925   2.48802   2.50831
 Alpha virt. eigenvalues --    2.53007   2.55199   2.56757   2.60077   2.69111
 Alpha virt. eigenvalues --    2.70478   2.73604   2.79513   2.81799   2.95397
 Alpha virt. eigenvalues --    3.01054   3.89610   3.90989   3.98202   4.06042
 Alpha virt. eigenvalues --    4.23724   4.27033   4.34202   4.51696   4.54835
 Alpha virt. eigenvalues --    4.71257
          Condensed to atoms (all electrons):
               1          2          3          4          5          6
     1  C    4.914068   0.317054  -0.055814  -0.076179   0.253225   0.000841
     2  C    0.317054   5.343601   0.310576  -0.051933  -0.049540   0.009693
     3  C   -0.055814   0.310576   4.980992   0.325527  -0.033696  -0.057436
     4  C   -0.076179  -0.051933   0.325527   4.945644   0.235329   0.325687
     5  O    0.253225  -0.049540  -0.033696   0.235329   8.271453  -0.054799
     6  C    0.000841   0.009693  -0.057436   0.325687  -0.054799   5.340771
     7  C    0.001971  -0.000191  -0.069042  -0.063110   0.006475   0.304140
     8  O    0.006276  -0.046877   0.206758  -0.033623  -0.001824  -0.039615
     9  S    0.000207  -0.000139   0.006170  -0.038545  -0.016844   0.269562
    10  S   -0.040447   0.239818  -0.053658  -0.001485  -0.004456  -0.000110
    11  H    0.379369  -0.036166   0.005939   0.003545  -0.033161  -0.000406
    12  H    0.353749  -0.034251  -0.006956   0.004687  -0.047705   0.001544
    13  H   -0.026392   0.363310  -0.030649   0.006188   0.002439   0.000026
    14  H    0.007578  -0.057422   0.376406  -0.034629   0.002963  -0.001976
    15  H    0.005726  -0.001195  -0.036917   0.371950  -0.043959  -0.057741
    16  H   -0.000133   0.000061  -0.000349  -0.026801   0.002906   0.352835
    17  H   -0.000661   0.001025   0.005073  -0.009024   0.003198  -0.042629
    18  H    0.000087  -0.000333   0.003332   0.006532   0.000055  -0.027218
    19  H   -0.000043   0.000053   0.000502  -0.012707   0.017247  -0.017428
    20  H   -0.006422  -0.016675  -0.006318   0.005248   0.004700   0.000218
               7          8          9         10         11         12
     1  C    0.001971   0.006276   0.000207  -0.040447   0.379369   0.353749
     2  C   -0.000191  -0.046877  -0.000139   0.239818  -0.036166  -0.034251
     3  C   -0.069042   0.206758   0.006170  -0.053658   0.005939  -0.006956
     4  C   -0.063110  -0.033623  -0.038545  -0.001485   0.003545   0.004687
     5  O    0.006475  -0.001824  -0.016844  -0.004456  -0.033161  -0.047705
     6  C    0.304140  -0.039615   0.269562  -0.000110  -0.000406   0.001544
     7  C    4.937532   0.236304  -0.059865  -0.000246   0.000114  -0.000741
     8  O    0.236304   8.298420   0.003222   0.004654   0.000011   0.003191
     9  S   -0.059865   0.003222  15.681298  -0.000017  -0.000061   0.000319
    10  S   -0.000246   0.004654  -0.000017  15.702675  -0.003087   0.006800
    11  H    0.000114   0.000011  -0.000061  -0.003087   0.557739  -0.047494
    12  H   -0.000741   0.003191   0.000319   0.006800  -0.047494   0.618234
    13  H   -0.000164   0.000391   0.000010  -0.036144   0.001705  -0.003207
    14  H    0.004847  -0.042899  -0.000259   0.004907  -0.000082  -0.000164
    15  H    0.008455   0.002839   0.002305   0.002640   0.000236  -0.000664
    16  H   -0.036314   0.001419  -0.036794  -0.000038   0.000008  -0.000046
    17  H    0.372202  -0.048626   0.001431  -0.000087   0.000035  -0.000227
    18  H    0.369351  -0.033748   0.003930   0.000021  -0.000001   0.000025
    19  H   -0.003049   0.000025   0.259986  -0.000001   0.000091  -0.000369
    20  H   -0.000007  -0.000002   0.000014   0.255719  -0.001567   0.000408
              13         14         15         16         17         18
     1  C   -0.026392   0.007578   0.005726  -0.000133  -0.000661   0.000087
     2  C    0.363310  -0.057422  -0.001195   0.000061   0.001025  -0.000333
     3  C   -0.030649   0.376406  -0.036917  -0.000349   0.005073   0.003332
     4  C    0.006188  -0.034629   0.371950  -0.026801  -0.009024   0.006532
     5  O    0.002439   0.002963  -0.043959   0.002906   0.003198   0.000055
     6  C    0.000026  -0.001976  -0.057741   0.352835  -0.042629  -0.027218
     7  C   -0.000164   0.004847   0.008455  -0.036314   0.372202   0.369351
     8  O    0.000391  -0.042899   0.002839   0.001419  -0.048626  -0.033748
     9  S    0.000010  -0.000259   0.002305  -0.036794   0.001431   0.003930
    10  S   -0.036144   0.004907   0.002640  -0.000038  -0.000087   0.000021
    11  H    0.001705  -0.000082   0.000236   0.000008   0.000035  -0.000001
    12  H   -0.003207  -0.000164  -0.000664  -0.000046  -0.000227   0.000025
    13  H    0.518133  -0.000208  -0.000163   0.000002   0.000050  -0.000016
    14  H   -0.000208   0.580486  -0.001004   0.000203  -0.000558   0.000276
    15  H   -0.000163  -0.001004   0.595728  -0.001039  -0.000095  -0.000115
    16  H    0.000002   0.000203  -0.001039   0.556457   0.005457  -0.007552
    17  H    0.000050  -0.000558  -0.000095   0.005457   0.609707  -0.047176
    18  H   -0.000016   0.000276  -0.000115  -0.007552  -0.047176   0.574547
    19  H   -0.000001  -0.000006   0.000447   0.003217   0.002233  -0.000069
    20  H    0.002888  -0.000954  -0.001689  -0.000005   0.000001  -0.000000
              19         20
     1  C   -0.000043  -0.006422
     2  C    0.000053  -0.016675
     3  C    0.000502  -0.006318
     4  C   -0.012707   0.005248
     5  O    0.017247   0.004700
     6  C   -0.017428   0.000218
     7  C   -0.003049  -0.000007
     8  O    0.000025  -0.000002
     9  S    0.259986   0.000014
    10  S   -0.000001   0.255719
    11  H    0.000091  -0.001567
    12  H   -0.000369   0.000408
    13  H   -0.000001   0.002888
    14  H   -0.000006  -0.000954
    15  H    0.000447  -0.001689
    16  H    0.003217  -0.000005
    17  H    0.002233   0.000001
    18  H   -0.000069  -0.000000
    19  H    0.621258  -0.000003
    20  H   -0.000003   0.655392
 Mulliken charges:
               1
     1  C   -0.034059
     2  C   -0.290469
     3  C    0.129560
     4  C    0.117699
     5  O   -0.514004
     6  C   -0.305958
     7  C   -0.008661
     8  O   -0.516296
     9  S   -0.075928
    10  S   -0.077459
    11  H    0.173233
    12  H    0.152865
    13  H    0.201803
    14  H    0.162497
    15  H    0.154253
    16  H    0.186508
    17  H    0.148670
    18  H    0.158071
    19  H    0.128619
    20  H    0.109055
 Sum of Mulliken charges =  -0.00000
 Mulliken charges with hydrogens summed into heavy atoms:
               1
     1  C    0.292039
     2  C   -0.088666
     3  C    0.292057
     4  C    0.271953
     5  O   -0.514004
     6  C   -0.119449
     7  C    0.298080
     8  O   -0.516296
     9  S    0.052691
    10  S    0.031596
 Electronic spatial extent (au):  <R**2>=           2034.7653
 Charge=             -0.0000 electrons
 Dipole moment (field-independent basis, Debye):
    X=             -0.2909    Y=              0.2571    Z=              0.2933  Tot=              0.4866
 Quadrupole moment (field-independent basis, Debye-Ang):
   XX=            -85.0094   YY=            -76.7095   ZZ=            -70.1488
   XY=              3.1427   XZ=             -1.4870   YZ=             -1.0021
 Traceless Quadrupole moment (field-independent basis, Debye-Ang):
   XX=             -7.7201   YY=              0.5797   ZZ=              7.1404
   XY=              3.1427   XZ=             -1.4870   YZ=             -1.0021
 Octapole moment (field-independent basis, Debye-Ang**2):
  XXX=              2.8754  YYY=             -6.3746  ZZZ=              6.1613  XYY=             -2.3068
  XXY=             12.1259  XXZ=              9.5969  XZZ=              1.4895  YZZ=              0.3084
  YYZ=              0.2591  XYZ=             -9.6887
 Hexadecapole moment (field-independent basis, Debye-Ang**3):
 XXXX=          -2174.4973 YYYY=           -509.9420 ZZZZ=           -279.4502 XXXY=              2.7212
 XXXZ=             -6.8321 YYYX=             14.3703 YYYZ=             -6.0960 ZZZX=             -9.9000
 ZZZY=             -4.9721 XXYY=           -377.8927 XXZZ=           -372.1450 YYZZ=           -123.5191
 XXYZ=             -4.8323 YYXZ=             13.7551 ZZXY=              8.0412
 N-N= 7.623500499359D+02 E-N=-4.314886914891D+03  KE= 1.175615315440D+03
 Calling FoFJK, ICntrl=      2127 FMM=F ISym2X=0 I1Cent= 0 IOpClX= 0 NMat=1 NMatS=1 NMatT=0.
 ***** Axes restored to original set *****
 -------------------------------------------------------------------
 Center     Atomic                   Forces (Hartrees/Bohr)
 Number     Number              X              Y              Z
 -------------------------------------------------------------------
      1        6           0.001384317   -0.009010171    0.016499734
      2        6          -0.007556401   -0.003403316    0.000035478
      3        6           0.015132497    0.010676308    0.002997450
      4        6          -0.009566306   -0.003874200   -0.006836031
      5        8           0.003880129    0.008336657   -0.009181586
      6        6          -0.001458215   -0.000530234    0.006641480
      7        6           0.002262825    0.014893776    0.009222371
      8        8          -0.001824654   -0.009202831   -0.005963343
      9       16           0.006102166   -0.010024383   -0.002732336
     10       16          -0.003427416    0.010515477   -0.005138150
     11        1           0.001380087   -0.000851319   -0.003230361
     12        1           0.000628779    0.004299636    0.002082129
     13        1           0.000561704    0.000285096   -0.004879405
     14        1          -0.005680545    0.000598442   -0.001367866
     15        1           0.002230329   -0.001078373    0.000143045
     16        1          -0.002453561   -0.004107090   -0.000167531
     17        1           0.000256235   -0.006532084    0.000210878
     18        1          -0.000286389    0.000546211    0.000304748
     19        1          -0.001839296    0.002310209    0.000425938
     20        1           0.000273715   -0.003847810    0.000933358
 -------------------------------------------------------------------
 Cartesian Forces:  Max     0.016499734 RMS     0.005868092

 GradGradGradGradGradGradGradGradGradGradGradGradGradGradGradGradGradGrad
 Berny optimization.
 FormGI is forming the generalized inverse of G from B-inverse, IUseBI=4.
 Internal  Forces:  Max     0.008615448 RMS     0.002781487
 Search for a local minimum.
 Step number   1 out of a maximum of  120
 All quantities printed in internal units (Hartrees-Bohrs-Radians)
 Mixed Optimization -- RFO/linear search
 Second derivative matrix not updated -- first step.
 ITU=  0
     Eigenvalues ---    0.00230   0.00230   0.00703   0.00791   0.00868
     Eigenvalues ---    0.02960   0.03182   0.03790   0.03972   0.04820
     Eigenvalues ---    0.04993   0.05177   0.05600   0.05710   0.05766
     Eigenvalues ---    0.05837   0.06046   0.06227   0.06591   0.07111
     Eigenvalues ---    0.08705   0.09514   0.09856   0.10661   0.11315
     Eigenvalues ---    0.11395   0.12756   0.13028   0.16000   0.16000
     Eigenvalues ---    0.16971   0.19404   0.21145   0.23682   0.24997
     Eigenvalues ---    0.25982   0.26057   0.26185   0.28650   0.29094
     Eigenvalues ---    0.29380   0.29802   0.34050   0.34118   0.34145
     Eigenvalues ---    0.34276   0.34289   0.34299   0.34326   0.34362
     Eigenvalues ---    0.36833   0.36952   0.37258   0.38032
 RFO step:  Lambda=-7.41665613D-03 EMin= 2.30000000D-03
 Linear search not attempted -- first point.
 Iteration  1 RMS(Cart)=  0.03841543 RMS(Int)=  0.00085266
 Iteration  2 RMS(Cart)=  0.00107764 RMS(Int)=  0.00033348
 Iteration  3 RMS(Cart)=  0.00000073 RMS(Int)=  0.00033347
 Variable       Old X    -DE/DX   Delta X   Delta X   Delta X     New X
                                 (Linear)    (Quad)   (Total)
    R1        2.87409   0.00690   0.00000   0.01649   0.01648   2.89056
    R2        2.72200  -0.00013   0.00000  -0.00127  -0.00138   2.72063
    R3        2.06828  -0.00151   0.00000  -0.00431  -0.00431   2.06397
    R4        2.07131   0.00259   0.00000   0.00744   0.00744   2.07875
    R5        2.86292   0.00680   0.00000   0.02241   0.02221   2.88513
    R6        3.46381   0.00617   0.00000   0.02527   0.02527   3.48908
    R7        2.06723  -0.00214   0.00000  -0.00611  -0.00611   2.06113
    R8        2.87515   0.00414   0.00000   0.01874   0.01879   2.89394
    R9        2.73660  -0.00317   0.00000  -0.00591  -0.00602   2.73057
   R10        2.06867  -0.00074   0.00000  -0.00212  -0.00212   2.06655
   R11        2.73296  -0.00663   0.00000  -0.01419  -0.01406   2.71890
   R12        2.86724   0.00737   0.00000   0.02400   0.02409   2.89133
   R13        2.06846  -0.00030   0.00000  -0.00085  -0.00085   2.06760
   R14        2.86927   0.00862   0.00000   0.02304   0.02315   2.89242
   R15        3.42916   0.00617   0.00000   0.02398   0.02398   3.45314
   R16        2.07245  -0.00167   0.00000  -0.00480  -0.00480   2.06765
   R17        2.72435   0.00007   0.00000  -0.00072  -0.00066   2.72369
   R18        2.07086   0.00115   0.00000   0.00330   0.00330   2.07416
   R19        2.06783  -0.00021   0.00000  -0.00060  -0.00060   2.06723
   R20        2.54094   0.00209   0.00000   0.00779   0.00779   2.54873
   R21        2.53786   0.00347   0.00000   0.01289   0.01289   2.55075
    A1        1.87237  -0.00326   0.00000  -0.03237  -0.03327   1.83910
    A2        1.99979  -0.00127   0.00000  -0.01742  -0.01851   1.98128
    A3        1.93028  -0.00079   0.00000   0.00201   0.00268   1.93296
    A4        1.91269   0.00044   0.00000  -0.02121  -0.02188   1.89081
    A5        1.86746   0.00391   0.00000   0.05439   0.05420   1.92166
    A6        1.87714   0.00136   0.00000   0.01957   0.01966   1.89680
    A7        1.77216  -0.00300   0.00000  -0.00930  -0.00996   1.76220
    A8        1.93879   0.00477   0.00000   0.03880   0.03881   1.97761
    A9        1.94275   0.00075   0.00000   0.01462   0.01452   1.95727
   A10        1.94239   0.00134   0.00000   0.02198   0.02130   1.96370
   A11        1.97720  -0.00009   0.00000  -0.02657  -0.02599   1.95121
   A12        1.88972  -0.00338   0.00000  -0.03485  -0.03503   1.85468
   A13        1.81782  -0.00002   0.00000  -0.00741  -0.00811   1.80971
   A14        1.91927   0.00081   0.00000  -0.00081  -0.00076   1.91851
   A15        2.00715  -0.00188   0.00000  -0.02284  -0.02285   1.98429
   A16        1.86925  -0.00247   0.00000  -0.01594  -0.01581   1.85344
   A17        1.98198   0.00025   0.00000   0.00190   0.00176   1.98373
   A18        1.86441   0.00312   0.00000   0.04339   0.04357   1.90798
   A19        1.86439  -0.00194   0.00000  -0.01623  -0.01652   1.84788
   A20        1.78935   0.00165   0.00000   0.00878   0.00856   1.79791
   A21        1.97794   0.00002   0.00000   0.01002   0.01016   1.98810
   A22        1.97067  -0.00164   0.00000  -0.02566  -0.02552   1.94515
   A23        1.88132   0.00215   0.00000   0.02134   0.02150   1.90282
   A24        1.97789  -0.00049   0.00000  -0.00082  -0.00102   1.97688
   A25        1.89672   0.00609   0.00000   0.02727   0.02637   1.92309
   A26        1.77797  -0.00251   0.00000  -0.00034  -0.00055   1.77742
   A27        2.00273   0.00375   0.00000   0.02414   0.02355   2.02628
   A28        1.90506  -0.00181   0.00000  -0.02229  -0.02234   1.88272
   A29        1.98108   0.00192   0.00000   0.02940   0.02893   2.01001
   A30        1.89686   0.00243   0.00000   0.01728   0.01732   1.91418
   A31        1.89534  -0.00366   0.00000  -0.04582  -0.04565   1.84969
   A32        1.85502  -0.00232   0.00000  -0.01669  -0.01641   1.83860
   A33        1.97245  -0.00434   0.00000  -0.03446  -0.03428   1.93818
   A34        1.96507   0.00130   0.00000   0.00523   0.00495   1.97002
   A35        1.87322   0.00480   0.00000   0.05289   0.05268   1.92590
   A36        1.90124   0.00041   0.00000  -0.00375  -0.00384   1.89740
   A37        1.89336   0.00045   0.00000   0.00006  -0.00027   1.89309
   A38        1.89292   0.00630   0.00000   0.03164   0.03142   1.92434
   A39        1.66967  -0.00540   0.00000  -0.03227  -0.03227   1.63740
   A40        1.69051  -0.00479   0.00000  -0.02862  -0.02862   1.66189
    D1       -0.54791  -0.00219   0.00000  -0.06749  -0.06643  -0.61434
    D2        1.51886  -0.00018   0.00000  -0.03002  -0.02938   1.48948
    D3       -2.65705  -0.00071   0.00000  -0.03787  -0.03696  -2.69400
    D4       -2.67541   0.00045   0.00000  -0.00534  -0.00523  -2.68063
    D5       -0.60864   0.00246   0.00000   0.03213   0.03182  -0.57682
    D6        1.49865   0.00193   0.00000   0.02428   0.02424   1.52289
    D7        1.48290   0.00019   0.00000  -0.02004  -0.01966   1.46323
    D8       -2.73352   0.00220   0.00000   0.01743   0.01738  -2.71614
    D9       -0.62624   0.00167   0.00000   0.00959   0.00981  -0.61643
   D10        0.30481   0.00305   0.00000   0.07500   0.07502   0.37983
   D11        2.48586  -0.00036   0.00000   0.01908   0.01997   2.50583
   D12       -1.76702   0.00363   0.00000   0.06104   0.06177  -1.70525
   D13        0.57153   0.00234   0.00000   0.04360   0.04359   0.61512
   D14       -1.42639   0.00484   0.00000   0.06612   0.06617  -1.36022
   D15        2.75178   0.00146   0.00000   0.02603   0.02602   2.77779
   D16       -1.49265  -0.00212   0.00000  -0.00599  -0.00590  -1.49855
   D17        2.79261   0.00037   0.00000   0.01654   0.01668   2.80930
   D18        0.68759  -0.00300   0.00000  -0.02355  -0.02347   0.66412
   D19        2.65634   0.00137   0.00000   0.04262   0.04280   2.69914
   D20        0.65842   0.00386   0.00000   0.06515   0.06538   0.72380
   D21       -1.44660   0.00049   0.00000   0.02506   0.02523  -1.42137
   D22       -0.75985   0.00093   0.00000   0.03190   0.03140  -0.72845
   D23        1.20109   0.00082   0.00000   0.05575   0.05583   1.25691
   D24       -2.89812  -0.00078   0.00000   0.01221   0.01263  -2.88550
   D25       -0.41428  -0.00133   0.00000   0.00290   0.00257  -0.41171
   D26       -2.49003   0.00057   0.00000   0.03452   0.03413  -2.45590
   D27        1.65491   0.00007   0.00000   0.02439   0.02407   1.67898
   D28        1.61883  -0.00149   0.00000  -0.00844  -0.00866   1.61017
   D29       -0.45692   0.00040   0.00000   0.02319   0.02290  -0.43403
   D30       -2.59517  -0.00010   0.00000   0.01306   0.01283  -2.58233
   D31       -2.61052   0.00088   0.00000   0.03576   0.03577  -2.57474
   D32        1.59692   0.00278   0.00000   0.06739   0.06733   1.66425
   D33       -0.54132   0.00228   0.00000   0.05726   0.05726  -0.48406
   D34        2.05508  -0.00150   0.00000  -0.04210  -0.04258   2.01250
   D35        0.09021  -0.00058   0.00000  -0.02474  -0.02469   0.06552
   D36       -2.03906  -0.00124   0.00000  -0.04217  -0.04216  -2.08122
   D37        0.07007  -0.00120   0.00000  -0.04854  -0.04879   0.02127
   D38        2.02385  -0.00117   0.00000  -0.06016  -0.06003   1.96382
   D39       -2.06109  -0.00133   0.00000  -0.06315  -0.06335  -2.12445
   D40        0.62488  -0.00099   0.00000  -0.01074  -0.01097   0.61391
   D41        2.77289   0.00171   0.00000   0.03854   0.03851   2.81140
   D42       -1.37879  -0.00182   0.00000  -0.02134  -0.02150  -1.40029
   D43       -1.37464   0.00106   0.00000   0.01451   0.01447  -1.36017
   D44        0.77337   0.00376   0.00000   0.06378   0.06395   0.83732
   D45        2.90488   0.00023   0.00000   0.00390   0.00393   2.90881
   D46        2.76316  -0.00014   0.00000   0.00673   0.00652   2.76968
   D47       -1.37202   0.00255   0.00000   0.05600   0.05600  -1.31602
   D48        0.75949  -0.00098   0.00000  -0.00387  -0.00401   0.75548
   D49       -0.59387   0.00200   0.00000   0.00477   0.00496  -0.58892
   D50        1.45626   0.00399   0.00000   0.03971   0.03990   1.49617
   D51       -2.67407   0.00224   0.00000   0.01708   0.01729  -2.65677
   D52       -2.75653  -0.00195   0.00000  -0.04048  -0.04053  -2.79707
   D53       -0.70640   0.00005   0.00000  -0.00555  -0.00558  -0.71198
   D54        1.44646  -0.00170   0.00000  -0.02818  -0.02819   1.41826
   D55        1.41584  -0.00027   0.00000  -0.01372  -0.01376   1.40208
   D56       -2.81721   0.00172   0.00000   0.02121   0.02119  -2.79602
   D57       -0.66436  -0.00003   0.00000  -0.00142  -0.00142  -0.66577
   D58       -0.70519  -0.00123   0.00000  -0.04113  -0.04158  -0.74678
   D59        1.32956  -0.00044   0.00000  -0.00271  -0.00199   1.32757
   D60       -2.84196   0.00131   0.00000   0.00597   0.00571  -2.83625
   D61        0.31843   0.00008   0.00000   0.01478   0.01487   0.33329
   D62       -1.79663   0.00389   0.00000   0.03622   0.03671  -1.75993
   D63        2.43992   0.00051   0.00000   0.00922   0.00928   2.44920
         Item               Value     Threshold  Converged?
 Maximum Force            0.008615     0.000450     NO 
 RMS     Force            0.002781     0.000300     NO 
 Maximum Displacement     0.135309     0.001800     NO 
 RMS     Displacement     0.037996     0.001200     NO 
 Predicted change in Energy=-4.127454D-03
 GradGradGradGradGradGradGradGradGradGradGradGradGradGradGradGradGradGrad

                          Input orientation:                          
 ---------------------------------------------------------------------
 Center     Atomic      Atomic             Coordinates (Angstroms)
 Number     Number       Type             X           Y           Z
 ---------------------------------------------------------------------
      1          6           0       -1.613901    0.090038    0.739599
      2          6           0       -1.126046    1.193161   -0.201068
      3          6           0        0.231370    0.635937   -0.622828
      4          6           0       -0.002379   -0.876063   -0.689368
      5          8           0       -1.123742   -1.139277    0.172810
      6          6           0        1.293332   -1.450660   -0.113215
      7          6           0        1.646971   -0.415693    0.957544
      8          8           0        1.199107    0.848206    0.428994
      9         16           0        1.215114   -3.179616    0.473049
     10         16           0       -2.250351    1.478463   -1.637565
     11          1           0       -2.702014    0.026399    0.809373
     12          1           0       -1.203657    0.230287    1.750584
     13          1           0       -1.029506    2.153580    0.306773
     14          1           0        0.611073    1.062757   -1.555324
     15          1           0       -0.230141   -1.245798   -1.693626
     16          1           0        2.048751   -1.434826   -0.904582
     17          1           0        1.135712   -0.636511    1.903361
     18          1           0        2.721925   -0.354161    1.150872
     19          1           0        0.019223   -3.016304    1.074918
     20          1           0       -2.482502    0.169892   -1.873582
 ---------------------------------------------------------------------
                    Distance matrix (angstroms):
                    1          2          3          4          5
     1  C    0.000000
     2  C    1.529620   0.000000
     3  C    2.357803   1.526747   0.000000
     4  C    2.360571   2.404735   1.531408   0.000000
     5  O    1.439694   2.362214   2.370813   1.438780   0.000000
     6  C    3.398977   3.584815   2.396113   1.530027   2.453776
     7  C    3.307045   3.408873   2.368001   2.375840   2.969214
     8  O    2.929899   2.433579   1.444958   2.380631   3.067792
     9  S    4.331860   5.005661   4.089883   2.853044   3.118233
    10  S    2.825544   1.846343   2.810424   3.390612   3.376280
    11  H    1.092204   2.205901   3.320764   3.216937   2.062754
    12  H    1.100027   2.177635   2.803023   2.936059   2.090804
    13  H    2.187936   1.090701   2.181102   3.350525   3.296928
    14  H    3.341162   2.206489   1.093572   2.210255   3.293173
    15  H    3.101586   2.996481   2.213714   1.094128   2.072066
    16  H    4.294596   4.180978   2.769534   2.136742   3.363456
    17  H    3.072879   3.590524   2.969611   2.841633   2.890106
    18  H    4.377881   4.362204   3.213903   3.328768   4.045018
    19  H    3.525463   4.545258   4.033139   2.773770   2.375583
    20  H    2.754916   2.384189   3.024349   2.940645   2.783500
                    6          7          8          9         10
     6  C    0.000000
     7  C    1.530603   0.000000
     8  O    2.363823   1.441315   0.000000
     9  S    1.827324   2.839104   4.028095   0.000000
    10  S    4.843666   5.050895   4.070215   6.177527   0.000000
    11  H    4.358401   4.373908   4.004847   5.073020   2.880971
    12  H    3.540380   3.028578   2.810997   4.371497   3.759397
    13  H    4.308424   3.766722   2.585663   5.788692   2.393052
    14  H    2.976982   3.094092   2.080706   4.740981   2.892632
    15  H    2.204685   3.352810   3.306527   3.243901   3.392048
    16  H    1.094152   2.160457   2.777149   2.374260   5.244692
    17  H    2.180428   1.097596   2.093361   2.918815   5.336356
    18  H    2.200251   1.093932   2.070210   3.273091   5.988107
    19  H    2.342275   3.070264   4.091917   1.348730   5.719393
    20  H    4.470124   5.040906   4.395022   5.513461   1.349799
                   11         12         13         14         15
    11  H    0.000000
    12  H    1.781157   0.000000
    13  H    2.752234   2.411219   0.000000
    14  H    4.200283   3.862031   2.710867   0.000000
    15  H    3.740808   3.871582   4.024470   2.460934   0.000000
    16  H    5.257621   4.516710   4.880544   2.954371   2.419022
    17  H    4.045293   2.499465   3.875805   3.889121   3.895524
    18  H    5.447987   4.013905   4.590698   3.713066   4.195341
    19  H    4.090682   3.534446   5.330814   4.889499   3.295711
    20  H    2.695741   3.843653   3.286361   3.235537   2.666401
                   16         17         18         19         20
    16  H    0.000000
    17  H    3.058675   0.000000
    18  H    2.417829   1.778211   0.000000
    19  H    3.246302   2.756135   3.794387   0.000000
    20  H    4.903706   5.292169   6.042187   5.010402   0.000000
 Stoichiometry    C6H10O2S2
 Framework group  C1[X(C6H10O2S2)]
 Deg. of freedom    54
 Full point group                 C1      NOp   1
 Largest Abelian subgroup         C1      NOp   1
 Largest concise Abelian subgroup C1      NOp   1
                         Standard orientation:                         
 ---------------------------------------------------------------------
 Center     Atomic      Atomic             Coordinates (Angstroms)
 Number     Number       Type             X           Y           Z
 ---------------------------------------------------------------------
      1          6           0       -0.993503   -0.490057    1.379460
      2          6           0       -1.770491    0.415104    0.422010
      3          6           0       -0.653178    0.880897   -0.508369
      4          6           0        0.264743   -0.340515   -0.612211
      5          8           0        0.019352   -1.119125    0.572541
      6          6           0        1.664162    0.277812   -0.595443
      7          6           0        1.473415    1.460696    0.356999
      8          8           0        0.123898    1.915479    0.134823
      9         16           0        3.036452   -0.850547   -0.167963
     10         16           0       -3.121048   -0.463453   -0.479719
     11          1           0       -1.605990   -1.272167    1.833412
     12          1           0       -0.525617    0.100642    2.180844
     13          1           0       -2.242210    1.251704    0.938934
     14          1           0       -1.010122    1.245121   -1.475753
     15          1           0        0.077518   -0.962354   -1.492766
     16          1           0        1.880270    0.646901   -1.602537
     17          1           0        1.604542    1.150751    1.401727
     18          1           0        2.160448    2.286883    0.151845
     19          1           0        2.358190   -1.439709    0.837979
     20          1           0       -2.400378   -1.578232   -0.724379
 ---------------------------------------------------------------------
 Rotational constants (GHZ):           2.1090355           0.6133553           0.5489273
 Standard basis: 6-31G(d) (6D, 7F)
 There are   178 symmetry adapted cartesian basis functions of A   symmetry.
 There are   178 symmetry adapted basis functions of A   symmetry.
   178 basis functions,   368 primitive gaussians,   178 cartesian basis functions
    47 alpha electrons       47 beta electrons
       nuclear repulsion energy       758.6025981891 Hartrees.
 NAtoms=   20 NActive=   20 NUniq=   20 SFac= 1.00D+00 NAtFMM=   60 NAOKFM=F Big=F
 Integral buffers will be    131072 words long.
 Raffenetti 2 integral format.
 Two-electron integral symmetry is turned on.
 Nuclear repulsion after empirical dispersion term =      758.5604520196 Hartrees.
 One-electron integrals computed using PRISM.
 NBasis=   178 RedAO= T EigKep=  1.56D-03  NBF=   178
 NBsUse=   178 1.00D-06 EigRej= -1.00D+00 NBFU=   178
 Initial guess from the checkpoint file:  "JID_832.chk"
 B after Tr=    -0.000000    0.000000    0.000000
         Rot=    0.999882    0.015286   -0.000832   -0.001304 Ang=   1.76 deg.
 ExpMin= 1.17D-01 ExpMax= 2.19D+04 ExpMxC= 3.30D+03 IAcc=2 IRadAn=         4 AccDes= 0.00D+00
 Harris functional with IExCor=  402 and IRadAn=       4 diagonalized for initial guess.
 HarFok:  IExCor=  402 AccDes= 0.00D+00 IRadAn=         4 IDoV= 1 UseB2=F ITyADJ=14
 ICtDFT=  3500011 ScaDFX=  1.000000  1.000000  1.000000  1.000000
 FoFCou: FMM=F IPFlag=           0 FMFlag=      100000 FMFlg1=           0
         NFxFlg=           0 DoJE=T BraDBF=F KetDBF=T FulRan=T
         wScrn=  0.000000 ICntrl=       500 IOpCl=  0 I1Cent=   200000004 NGrid=           0
         NMat0=    1 NMatS0=      1 NMatT0=    0 NMatD0=    1 NMtDS0=    0 NMtDT0=    0
 Petite list used in FoFCou.
 Keep R1 ints in memory in canonical form, NReq=130925470.
 Requested convergence on RMS density matrix=1.00D-08 within  32 cycles.
 Requested convergence on MAX density matrix=1.00D-06.
 Requested convergence on             energy=1.00D-06.
 No special actions if energy rises.
 Integral accuracy reduced to 1.0D-05 until final iterations.
 Initial convergence to 1.0D-05 achieved.  Increase integral accuracy.
 SCF Done:  E(RB3LYP) =  -1181.49177457     A.U. after   11 cycles
            NFock= 11  Conv=0.72D-08     -V/T= 2.0051
 QCSCF skips out because SCF is already converged.
 Calling FoFJK, ICntrl=      2127 FMM=F ISym2X=0 I1Cent= 0 IOpClX= 0 NMat=1 NMatS=1 NMatT=0.
 ***** Axes restored to original set *****
 -------------------------------------------------------------------
 Center     Atomic                   Forces (Hartrees/Bohr)
 Number     Number              X              Y              Z
 -------------------------------------------------------------------
      1        6           0.000079915   -0.003225451    0.000438690
      2        6          -0.001824286    0.000618264    0.002259958
      3        6           0.006442028    0.000658158    0.002682238
      4        6          -0.002816046   -0.001568640    0.002154972
      5        8          -0.001145922    0.002365683   -0.002218785
      6        6           0.001068828    0.000815497    0.000026568
      7        6          -0.001215139    0.004771998   -0.001466053
      8        8          -0.000657955   -0.004261507   -0.002392218
      9       16          -0.000829079    0.000841244   -0.000894629
     10       16           0.000984845   -0.000801293    0.001272897
     11        1           0.000055963   -0.000551949   -0.000057394
     12        1           0.000981711    0.000524929   -0.001560959
     13        1           0.000701813    0.001115100   -0.001039044
     14        1          -0.000663090    0.001255290    0.000478156
     15        1           0.000396723   -0.001194528    0.000891249
     16        1           0.000801711   -0.000507268   -0.000237356
     17        1          -0.000861442   -0.000344551   -0.000185344
     18        1          -0.000505579    0.000546083   -0.000187117
     19        1          -0.000520483   -0.000916451    0.000685712
     20        1          -0.000474517   -0.000140610   -0.000651540
 -------------------------------------------------------------------
 Cartesian Forces:  Max     0.006442028 RMS     0.001680676

 GradGradGradGradGradGradGradGradGradGradGradGradGradGradGradGradGradGrad
 Berny optimization.
 Using GEDIIS/GDIIS optimizer.
 FormGI is forming the generalized inverse of G from B-inverse, IUseBI=4.
 Internal  Forces:  Max     0.004600254 RMS     0.000900972
 Search for a local minimum.
 Step number   2 out of a maximum of  120
 All quantities printed in internal units (Hartrees-Bohrs-Radians)
 Mixed Optimization -- En-DIIS/RFO-DIIS
 Update second derivatives using D2CorX and points    1    2
 DE= -3.86D-03 DEPred=-4.13D-03 R= 9.34D-01
 TightC=F SS=  1.41D+00  RLast= 3.34D-01 DXNew= 5.0454D-01 1.0014D+00
 Trust test= 9.34D-01 RLast= 3.34D-01 DXMaxT set to 5.05D-01
 ITU=  1  0
 Use linear search instead of GDIIS.
     Eigenvalues ---    0.00230   0.00232   0.00713   0.00809   0.00856
     Eigenvalues ---    0.02927   0.03167   0.03830   0.03979   0.04816
     Eigenvalues ---    0.04987   0.05234   0.05564   0.05701   0.05801
     Eigenvalues ---    0.05885   0.06075   0.06402   0.06574   0.07243
     Eigenvalues ---    0.08860   0.09563   0.09704   0.10587   0.11030
     Eigenvalues ---    0.11112   0.12628   0.13233   0.15998   0.16355
     Eigenvalues ---    0.17982   0.19512   0.21261   0.23810   0.24855
     Eigenvalues ---    0.25957   0.26118   0.26454   0.27914   0.28615
     Eigenvalues ---    0.29112   0.29773   0.34063   0.34133   0.34174
     Eigenvalues ---    0.34271   0.34286   0.34299   0.34328   0.34396
     Eigenvalues ---    0.36719   0.37140   0.37385   0.38803
 RFO step:  Lambda=-8.70866270D-04 EMin= 2.29948333D-03
 Quartic linear search produced a step of  0.04711.
 Iteration  1 RMS(Cart)=  0.02661793 RMS(Int)=  0.00038304
 Iteration  2 RMS(Cart)=  0.00047802 RMS(Int)=  0.00010810
 Iteration  3 RMS(Cart)=  0.00000008 RMS(Int)=  0.00010810
 Variable       Old X    -DE/DX   Delta X   Delta X   Delta X     New X
                                 (Linear)    (Quad)   (Total)
    R1        2.89056   0.00025   0.00078   0.00095   0.00178   2.89234
    R2        2.72063  -0.00237  -0.00006  -0.00770  -0.00775   2.71288
    R3        2.06397  -0.00003  -0.00020  -0.00027  -0.00047   2.06349
    R4        2.07875  -0.00100   0.00035  -0.00273  -0.00238   2.07637
    R5        2.88513   0.00105   0.00105   0.00575   0.00681   2.89194
    R6        3.48908  -0.00094   0.00119  -0.00301  -0.00182   3.48726
    R7        2.06113   0.00056  -0.00029   0.00143   0.00114   2.06226
    R8        2.89394   0.00146   0.00089   0.00861   0.00941   2.90335
    R9        2.73057  -0.00460  -0.00028  -0.01340  -0.01372   2.71686
   R10        2.06655  -0.00015  -0.00010  -0.00054  -0.00064   2.06591
   R11        2.71890  -0.00175  -0.00066  -0.00568  -0.00638   2.71252
   R12        2.89133  -0.00079   0.00113  -0.00013   0.00100   2.89233
   R13        2.06760  -0.00050  -0.00004  -0.00155  -0.00159   2.06602
   R14        2.89242   0.00024   0.00109   0.00161   0.00276   2.89518
   R15        3.45314   0.00006   0.00113   0.00131   0.00244   3.45558
   R16        2.06765   0.00072  -0.00023   0.00198   0.00175   2.06940
   R17        2.72369  -0.00452  -0.00003  -0.01333  -0.01333   2.71036
   R18        2.07416   0.00031   0.00016   0.00110   0.00125   2.07541
   R19        2.06723  -0.00050  -0.00003  -0.00154  -0.00157   2.06566
   R20        2.54873   0.00066   0.00037   0.00296   0.00332   2.55205
   R21        2.55075   0.00033   0.00061   0.00188   0.00249   2.55324
    A1        1.83910   0.00053  -0.00157  -0.00453  -0.00640   1.83271
    A2        1.98128   0.00040  -0.00087   0.00447   0.00360   1.98488
    A3        1.93296  -0.00125   0.00013  -0.00908  -0.00888   1.92408
    A4        1.89081  -0.00052  -0.00103  -0.00357  -0.00448   1.88633
    A5        1.92166   0.00013   0.00255   0.00300   0.00551   1.92718
    A6        1.89680   0.00070   0.00093   0.00938   0.01030   1.90710
    A7        1.76220  -0.00021  -0.00047  -0.00164  -0.00228   1.75992
    A8        1.97761  -0.00048   0.00183  -0.00206  -0.00020   1.97741
    A9        1.95727   0.00112   0.00068   0.01631   0.01705   1.97433
   A10        1.96370   0.00024   0.00100  -0.00109  -0.00014   1.96355
   A11        1.95121  -0.00051  -0.00122  -0.00808  -0.00918   1.94203
   A12        1.85468  -0.00015  -0.00165  -0.00319  -0.00494   1.84974
   A13        1.80971  -0.00119  -0.00038  -0.00363  -0.00427   1.80544
   A14        1.91851  -0.00019  -0.00004  -0.00685  -0.00672   1.91180
   A15        1.98429   0.00003  -0.00108  -0.00563  -0.00665   1.97764
   A16        1.85344   0.00066  -0.00074   0.00403   0.00317   1.85661
   A17        1.98373   0.00091   0.00008   0.01101   0.01118   1.99491
   A18        1.90798  -0.00021   0.00205   0.00112   0.00308   1.91106
   A19        1.84788   0.00049  -0.00078   0.00361   0.00263   1.85051
   A20        1.79791  -0.00141   0.00040  -0.00227  -0.00196   1.79595
   A21        1.98810   0.00105   0.00048   0.01041   0.01096   1.99907
   A22        1.94515   0.00051  -0.00120  -0.00097  -0.00204   1.94311
   A23        1.90282  -0.00058   0.00101  -0.00480  -0.00377   1.89905
   A24        1.97688  -0.00000  -0.00005  -0.00509  -0.00515   1.97173
   A25        1.92309   0.00048   0.00124  -0.00036   0.00019   1.92328
   A26        1.77742  -0.00093  -0.00003  -0.00343  -0.00356   1.77386
   A27        2.02628  -0.00082   0.00111  -0.00841  -0.00720   2.01907
   A28        1.88272   0.00087  -0.00105   0.00695   0.00585   1.88857
   A29        2.01001   0.00138   0.00136   0.00682   0.00815   2.01817
   A30        1.91418  -0.00009   0.00082   0.00272   0.00359   1.91777
   A31        1.84969  -0.00037  -0.00215  -0.00378  -0.00595   1.84374
   A32        1.83860   0.00084  -0.00077   0.00019  -0.00062   1.83798
   A33        1.93818  -0.00072  -0.00161  -0.00572  -0.00732   1.93085
   A34        1.97002   0.00018   0.00023   0.00312   0.00336   1.97338
   A35        1.92590  -0.00015   0.00248   0.00195   0.00437   1.93026
   A36        1.89740  -0.00062  -0.00018  -0.00473  -0.00483   1.89257
   A37        1.89309   0.00045  -0.00001   0.00500   0.00498   1.89807
   A38        1.92434   0.00059   0.00148   0.00083   0.00195   1.92630
   A39        1.63740   0.00272  -0.00152   0.01625   0.01473   1.65213
   A40        1.66189   0.00191  -0.00135   0.01112   0.00977   1.67166
    D1       -0.61434  -0.00010  -0.00313  -0.02434  -0.02728  -0.64162
    D2        1.48948  -0.00017  -0.00138  -0.02764  -0.02895   1.46053
    D3       -2.69400   0.00011  -0.00174  -0.02127  -0.02288  -2.71688
    D4       -2.68063  -0.00003  -0.00025  -0.01952  -0.01967  -2.70030
    D5       -0.57682  -0.00010   0.00150  -0.02282  -0.02134  -0.59815
    D6        1.52289   0.00019   0.00114  -0.01645  -0.01527   1.50762
    D7        1.46323  -0.00029  -0.00093  -0.02819  -0.02904   1.43420
    D8       -2.71614  -0.00036   0.00082  -0.03148  -0.03070  -2.74683
    D9       -0.61643  -0.00007   0.00046  -0.02512  -0.02463  -0.64106
   D10        0.37983   0.00010   0.00353   0.04604   0.04953   0.42936
   D11        2.50583   0.00060   0.00094   0.04689   0.04787   2.55370
   D12       -1.70525   0.00122   0.00291   0.05786   0.06087  -1.64438
   D13        0.61512  -0.00059   0.00205  -0.00638  -0.00441   0.61071
   D14       -1.36022  -0.00066   0.00312  -0.00631  -0.00313  -1.36334
   D15        2.77779  -0.00027   0.00123   0.00145   0.00259   2.78039
   D16       -1.49855  -0.00001  -0.00028  -0.00244  -0.00274  -1.50129
   D17        2.80930  -0.00008   0.00079  -0.00236  -0.00146   2.80784
   D18        0.66412   0.00031  -0.00111   0.00540   0.00426   0.66839
   D19        2.69914   0.00037   0.00202   0.00809   0.01005   2.70920
   D20        0.72380   0.00030   0.00308   0.00817   0.01134   0.73514
   D21       -1.42137   0.00069   0.00119   0.01593   0.01705  -1.40431
   D22       -0.72845   0.00044   0.00148  -0.00501  -0.00349  -0.73194
   D23        1.25691   0.00002   0.00263  -0.00912  -0.00659   1.25033
   D24       -2.88550  -0.00056   0.00059  -0.02201  -0.02137  -2.90687
   D25       -0.41171   0.00016   0.00012   0.03199   0.03205  -0.37966
   D26       -2.45590   0.00000   0.00161   0.03260   0.03411  -2.42179
   D27        1.67898   0.00038   0.00113   0.03453   0.03560   1.71457
   D28        1.61017  -0.00031  -0.00041   0.02438   0.02395   1.63412
   D29       -0.43403  -0.00047   0.00108   0.02499   0.02602  -0.40801
   D30       -2.58233  -0.00009   0.00060   0.02692   0.02750  -2.55483
   D31       -2.57474   0.00041   0.00169   0.03501   0.03671  -2.53803
   D32        1.66425   0.00025   0.00317   0.03562   0.03878   1.70302
   D33       -0.48406   0.00063   0.00270   0.03755   0.04026  -0.44380
   D34        2.01250  -0.00089  -0.00201  -0.04124  -0.04349   1.96901
   D35        0.06552   0.00025  -0.00116  -0.03595  -0.03709   0.02843
   D36       -2.08122  -0.00113  -0.00199  -0.05231  -0.05436  -2.13558
   D37        0.02127   0.00003  -0.00230  -0.04804  -0.05039  -0.02911
   D38        1.96382  -0.00112  -0.00283  -0.04921  -0.05221   1.91161
   D39       -2.12445  -0.00119  -0.00298  -0.05995  -0.06297  -2.18742
   D40        0.61391  -0.00042  -0.00052  -0.00902  -0.00960   0.60431
   D41        2.81140   0.00013   0.00181  -0.00809  -0.00633   2.80508
   D42       -1.40029  -0.00023  -0.00101  -0.01317  -0.01424  -1.41453
   D43       -1.36017  -0.00046   0.00068  -0.01158  -0.01076  -1.37093
   D44        0.83732   0.00009   0.00301  -0.01065  -0.00748   0.82984
   D45        2.90881  -0.00027   0.00019  -0.01573  -0.01539   2.89342
   D46        2.76968  -0.00009   0.00031  -0.00064  -0.00039   2.76930
   D47       -1.31602   0.00046   0.00264   0.00028   0.00289  -1.31312
   D48        0.75548   0.00011  -0.00019  -0.00480  -0.00502   0.75045
   D49       -0.58892  -0.00049   0.00023  -0.01547  -0.01508  -0.60400
   D50        1.49617  -0.00055   0.00188  -0.01607  -0.01412   1.48205
   D51       -2.65677  -0.00037   0.00081  -0.01155  -0.01066  -2.66743
   D52       -2.79707   0.00039  -0.00191  -0.00648  -0.00830  -2.80536
   D53       -0.71198   0.00033  -0.00026  -0.00708  -0.00733  -0.71931
   D54        1.41826   0.00051  -0.00133  -0.00256  -0.00387   1.41439
   D55        1.40208   0.00000  -0.00065  -0.00822  -0.00880   1.39328
   D56       -2.79602  -0.00005   0.00100  -0.00881  -0.00783  -2.80385
   D57       -0.66577   0.00013  -0.00007  -0.00429  -0.00437  -0.67015
   D58       -0.74678   0.00030  -0.00196  -0.02330  -0.02524  -0.77201
   D59        1.32757  -0.00051  -0.00009  -0.02921  -0.02930   1.29826
   D60       -2.83625  -0.00003   0.00027  -0.02425  -0.02400  -2.86026
   D61        0.33329   0.00018   0.00070   0.03253   0.03320   0.36650
   D62       -1.75993   0.00062   0.00173   0.03820   0.03998  -1.71994
   D63        2.44920   0.00053   0.00044   0.03383   0.03429   2.48349
         Item               Value     Threshold  Converged?
 Maximum Force            0.004600     0.000450     NO 
 RMS     Force            0.000901     0.000300     NO 
 Maximum Displacement     0.123816     0.001800     NO 
 RMS     Displacement     0.026702     0.001200     NO 
 Predicted change in Energy=-4.616625D-04
 GradGradGradGradGradGradGradGradGradGradGradGradGradGradGradGradGradGrad

                          Input orientation:                          
 ---------------------------------------------------------------------
 Center     Atomic      Atomic             Coordinates (Angstroms)
 Number     Number       Type             X           Y           Z
 ---------------------------------------------------------------------
      1          6           0       -1.588858    0.071282    0.742573
      2          6           0       -1.120178    1.188927   -0.192211
      3          6           0        0.237392    0.640885   -0.637882
      4          6           0        0.004115   -0.875989   -0.709746
      5          8           0       -1.128951   -1.142908    0.130075
      6          6           0        1.289977   -1.448330   -0.108429
      7          6           0        1.624922   -0.401119    0.958518
      8          8           0        1.206624    0.853092    0.402569
      9         16           0        1.187913   -3.175626    0.483063
     10         16           0       -2.263816    1.481680   -1.610596
     11          1           0       -2.674342    0.009622    0.843979
     12          1           0       -1.138137    0.193529    1.737159
     13          1           0       -1.012772    2.151424    0.310786
     14          1           0        0.598657    1.085115   -1.569172
     15          1           0       -0.203703   -1.256359   -1.713445
     16          1           0        2.061145   -1.447625   -0.885925
     17          1           0        1.082574   -0.610811    1.890215
     18          1           0        2.693749   -0.341879    1.179815
     19          1           0       -0.003815   -3.011227    1.096720
     20          1           0       -2.494156    0.176127   -1.871344
 ---------------------------------------------------------------------
                    Distance matrix (angstroms):
                    1          2          3          4          5
     1  C    0.000000
     2  C    1.530560   0.000000
     3  C    2.359087   1.530349   0.000000
     4  C    2.354595   2.407438   1.536389   0.000000
     5  O    1.435593   2.354018   2.374567   1.435403   0.000000
     6  C    3.364687   3.573653   2.398557   1.530554   2.449771
     7  C    3.255484   3.374611   2.357860   2.373946   2.969913
     8  O    2.922593   2.424986   1.437700   2.381805   3.084344
     9  S    4.280212   4.983233   4.089715   2.848245   3.102322
    10  S    2.825278   1.845379   2.812321   3.393176   3.347583
    11  H    1.091952   2.209044   3.327551   3.220637   2.055777
    12  H    1.098770   2.171085   2.780831   2.904471   2.090184
    13  H    2.201205   1.091303   2.178212   3.352727   3.301329
    14  H    3.340246   2.204811   1.093231   2.222166   3.291831
    15  H    3.116618   3.022169   2.225070   1.093289   2.065797
    16  H    4.275700   4.189686   2.783788   2.142237   3.361818
    17  H    2.986449   3.525290   2.944885   2.827223   2.876119
    18  H    4.324651   4.332650   3.209912   3.330142   4.044333
    19  H    3.484199   4.533090   4.050303   2.796896   2.385571
    20  H    2.768234   2.394382   3.032949   2.949172   2.758499
                    6          7          8          9         10
     6  C    0.000000
     7  C    1.532062   0.000000
     8  O    2.358943   1.434259   0.000000
     9  S    1.828615   2.848671   4.029566   0.000000
    10  S    4.844678   5.026684   4.061023   6.163468   0.000000
    11  H    4.329957   4.320358   3.996021   5.019271   2.891440
    12  H    3.463760   2.931617   2.777419   4.281877   3.759514
    13  H    4.293789   3.727259   2.572899   5.766295   2.388592
    14  H    3.005002   3.106658   2.076348   4.765795   2.890109
    15  H    2.200911   3.348834   3.303986   3.231846   3.428046
    16  H    1.095081   2.165049   2.771953   2.371213   5.273638
    17  H    2.176932   1.098258   2.090811   2.927363   5.275653
    18  H    2.203266   1.093102   2.060002   3.283768   5.974044
    19  H    2.359858   3.079700   4.108525   1.350488   5.711688
    20  H    4.479553   5.030719   4.395991   5.507732   1.351116
                   11         12         13         14         15
    11  H    0.000000
    12  H    1.786482   0.000000
    13  H    2.762684   2.425614   0.000000
    14  H    4.206246   3.839687   2.695916   0.000000
    15  H    3.774543   3.857721   4.045378   2.479334   0.000000
    16  H    5.247950   4.450771   4.882032   3.003409   2.418866
    17  H    3.948919   2.366843   3.809857   3.883001   3.880413
    18  H    5.390059   3.909046   4.550831   3.739338   4.195528
    19  H    4.039940   3.459380   5.318708   4.924426   3.319118
    20  H    2.726384   3.854917   3.295146   3.237755   2.706127
                   16         17         18         19         20
    16  H    0.000000
    17  H    3.060199   0.000000
    18  H    2.426962   1.781257   0.000000
    19  H    3.261870   2.751704   3.795942   0.000000
    20  H    4.935422   5.249913   6.040882   5.017014   0.000000
 Stoichiometry    C6H10O2S2
 Framework group  C1[X(C6H10O2S2)]
 Deg. of freedom    54
 Full point group                 C1      NOp   1
 Largest Abelian subgroup         C1      NOp   1
 Largest concise Abelian subgroup C1      NOp   1
                         Standard orientation:                         
 ---------------------------------------------------------------------
 Center     Atomic      Atomic             Coordinates (Angstroms)
 Number     Number       Type             X           Y           Z
 ---------------------------------------------------------------------
      1          6           0       -0.957217   -0.496696    1.365919
      2          6           0       -1.758079    0.411553    0.429801
      3          6           0       -0.656486    0.890400   -0.518442
      4          6           0        0.267666   -0.331116   -0.638167
      5          8           0        0.013717   -1.135512    0.523228
      6          6           0        1.665011    0.291505   -0.589527
      7          6           0        1.448941    1.460468    0.376938
      8          8           0        0.114757    1.920951    0.121972
      9         16           0        3.026788   -0.850146   -0.158216
     10         16           0       -3.117734   -0.468756   -0.454405
     11          1           0       -1.556977   -1.275034    1.842195
[...]
    74    C    4  px     Ryd( 4p)     0.00034       2.06431
    75    C    4  px     Ryd( 5p)     0.00007       2.72228
    76    C    4  py     Val( 2p)     0.47074       0.01467
    77    C    4  py     Ryd( 3p)     0.00391       1.01243
    78    C    4  py     Ryd( 4p)     0.00062       3.08665
    79    C    4  py     Ryd( 5p)     0.00006       3.37680
    80    C    4  pz     Val( 2p)     0.47936       0.01507
    81    C    4  pz     Ryd( 3p)     0.00311       1.12398
    82    C    4  pz     Ryd( 4p)     0.00064       2.88282
    83    C    4  pz     Ryd( 5p)     0.00007       2.92646
    84    C    4  dxy    Ryd( 3d)     0.00070       2.29445
    85    C    4  dxz    Ryd( 3d)     0.00062       1.96624
    86    C    4  dyz    Ryd( 3d)     0.00102       2.28288
    87    C    4  dx2y2  Ryd( 3d)     0.00051       2.05830
    88    C    4  dz2    Ryd( 3d)     0.00097       2.29932
 
    89    O    5  S      Cor( 1S)     0.99989     -18.83022
    90    O    5  S      Val( 2S)     0.81363      -0.77128
    91    O    5  S      Ryd( 3S)     0.00196       1.16728
    92    O    5  S      Ryd( 4S)     0.00006       1.80075
    93    O    5  S      Ryd( 5S)     0.00000      49.47571
    94    O    5  px     Val( 2p)     0.87281      -0.19845
    95    O    5  px     Ryd( 3p)     0.00220       0.69239
    96    O    5  px     Ryd( 4p)     0.00037       1.24714
    97    O    5  px     Ryd( 5p)     0.00001       5.22927
    98    O    5  py     Val( 2p)     0.86400      -0.21503
    99    O    5  py     Ryd( 3p)     0.00198       0.73386
   100    O    5  py     Ryd( 4p)     0.00027       1.22308
   101    O    5  py     Ryd( 5p)     0.00002       5.27264
   102    O    5  pz     Val( 2p)     0.74774      -0.18573
   103    O    5  pz     Ryd( 3p)     0.00193       0.73481
   104    O    5  pz     Ryd( 4p)     0.00022       1.24133
   105    O    5  pz     Ryd( 5p)     0.00001       5.31048
   106    O    5  dxy    Ryd( 3d)     0.00046       3.22539
   107    O    5  dxz    Ryd( 3d)     0.00023       3.34388
   108    O    5  dyz    Ryd( 3d)     0.00052       3.47335
   109    O    5  dx2y2  Ryd( 3d)     0.00041       3.15541
   110    O    5  dz2    Ryd( 3d)     0.00017       3.19718
 
   111    C    6  S      Cor( 1S)     0.99950      -9.97978
   112    C    6  S      Val( 2S)     0.52866      -0.20744
   113    C    6  S      Ryd( 3S)     0.00249       1.20961
   114    C    6  S      Ryd( 4S)     0.00087       1.59369
   115    C    6  S      Ryd( 5S)     0.00003      19.49074
   116    C    6  px     Val( 2p)     0.52701      -0.04562
   117    C    6  px     Ryd( 3p)     0.00153       1.10163
   118    C    6  px     Ryd( 5p)     0.00049       2.71570
   119    C    6  px     Ryd( 4p)     0.00012       2.55123
   120    C    6  py     Val( 2p)     0.53396      -0.03611
   121    C    6  py     Ryd( 3p)     0.00150       0.79706
   122    C    6  py     Ryd( 4p)     0.00079       1.81719
   123    C    6  py     Ryd( 5p)     0.00004       2.07552
   124    C    6  pz     Val( 2p)     0.58426      -0.01873
   125    C    6  pz     Ryd( 3p)     0.00234       0.92408
   126    C    6  pz     Ryd( 4p)     0.00073       1.95312
   127    C    6  pz     Ryd( 5p)     0.00006       2.63826
   128    C    6  dxy    Ryd( 3d)     0.00073       2.08683
   129    C    6  dxz    Ryd( 3d)     0.00032       1.96325
   130    C    6  dyz    Ryd( 3d)     0.00052       2.28496
   131    C    6  dx2y2  Ryd( 3d)     0.00047       2.05787
   132    C    6  dz2    Ryd( 3d)     0.00062       2.16631
 
   133    C    7  S      Cor( 1S)     0.99953      -9.98980
   134    C    7  S      Val( 2S)     0.50334      -0.14271
   135    C    7  S      Ryd( 4S)     0.00118       1.80531
   136    C    7  S      Ryd( 3S)     0.00098       1.78527
   137    C    7  S      Ryd( 5S)     0.00004      15.98064
   138    C    7  px     Val( 2p)     0.40246       0.02944
   139    C    7  px     Ryd( 3p)     0.00284       0.95414
   140    C    7  px     Ryd( 4p)     0.00038       1.43370
   141    C    7  px     Ryd( 5p)     0.00005       2.92336
   142    C    7  py     Val( 2p)     0.53538       0.01076
   143    C    7  py     Ryd( 3p)     0.00317       1.28464
   144    C    7  py     Ryd( 4p)     0.00070       2.71450
   145    C    7  py     Ryd( 5p)     0.00007       2.89731
   146    C    7  pz     Val( 2p)     0.55779       0.00709
   147    C    7  pz     Ryd( 3p)     0.00068       1.05396
   148    C    7  pz     Ryd( 4p)     0.00021       2.48285
   149    C    7  pz     Ryd( 5p)     0.00004       2.82323
   150    C    7  dxy    Ryd( 3d)     0.00098       2.28730
   151    C    7  dxz    Ryd( 3d)     0.00082       1.92789
   152    C    7  dyz    Ryd( 3d)     0.00054       2.32814
   153    C    7  dx2y2  Ryd( 3d)     0.00076       2.08733
   154    C    7  dz2    Ryd( 3d)     0.00072       2.28568
 
   155    O    8  S      Cor( 1S)     0.99989     -18.82637
   156    O    8  S      Val( 2S)     0.81183      -0.76458
   157    O    8  S      Ryd( 3S)     0.00178       1.13291
   158    O    8  S      Ryd( 4S)     0.00014       1.91294
   159    O    8  S      Ryd( 5S)     0.00000      49.50213
   160    O    8  px     Val( 2p)     0.72125      -0.18181
   161    O    8  px     Ryd( 3p)     0.00151       0.84806
   162    O    8  px     Ryd( 4p)     0.00017       1.28558
   163    O    8  px     Ryd( 5p)     0.00001       5.30893
   164    O    8  py     Val( 2p)     0.85161      -0.20986
   165    O    8  py     Ryd( 3p)     0.00152       0.77638
   166    O    8  py     Ryd( 4p)     0.00021       1.20891
   167    O    8  py     Ryd( 5p)     0.00003       5.26021
   168    O    8  pz     Val( 2p)     0.90863      -0.19239
   169    O    8  pz     Ryd( 3p)     0.00251       0.63775
   170    O    8  pz     Ryd( 4p)     0.00017       1.15252
   171    O    8  pz     Ryd( 5p)     0.00001       5.18300
   172    O    8  dxy    Ryd( 3d)     0.00052       3.44063
   173    O    8  dxz    Ryd( 3d)     0.00018       3.23942
   174    O    8  dyz    Ryd( 3d)     0.00043       3.22146
   175    O    8  dx2y2  Ryd( 3d)     0.00042       3.30330
   176    O    8  dz2    Ryd( 3d)     0.00027       3.21614
 
   177    S    9  S      Cor( 1S)     1.00000     -87.64199
   178    S    9  S      Cor( 2S)     0.99972      -8.69122
   179    S    9  S      Val( 3S)     0.85558      -0.62702
   180    S    9  S      Ryd( 4S)     0.00088       0.96269
   181    S    9  S      Ryd( 5S)     0.00070       1.03538
   182    S    9  S      Ryd( 6S)     0.00001      12.30374
   183    S    9  S      Ryd( 7S)     0.00000     183.81746
   184    S    9  px     Cor( 2p)     0.99996      -5.78062
   185    S    9  px     Val( 3p)     0.69220      -0.10316
   186    S    9  px     Ryd( 4p)     0.00074       0.54684
   187    S    9  px     Ryd( 5p)     0.00009       0.59465
   188    S    9  px     Ryd( 6p)     0.00004       2.10206
   189    S    9  px     Ryd( 7p)     0.00000      17.10307
   190    S    9  py     Cor( 2p)     0.99997      -5.78082
   191    S    9  py     Val( 3p)     0.67489      -0.10155
   192    S    9  py     Ryd( 5p)     0.00276       0.56499
   193    S    9  py     Ryd( 4p)     0.00003       0.44695
   194    S    9  py     Ryd( 6p)     0.00003       2.00135
   195    S    9  py     Ryd( 7p)     0.00000      17.12064
   196    S    9  pz     Cor( 2p)     0.99998      -5.77953
   197    S    9  pz     Val( 3p)     0.78192      -0.11771
   198    S    9  pz     Ryd( 5p)     0.00246       0.55217
   199    S    9  pz     Ryd( 4p)     0.00005       0.50184
   200    S    9  pz     Ryd( 6p)     0.00004       1.99367
   201    S    9  pz     Ryd( 7p)     0.00000      17.13076
   202    S    9  dxy    Ryd( 3d)     0.00260       1.29389
   203    S    9  dxz    Ryd( 3d)     0.00178       1.22391
   204    S    9  dyz    Ryd( 3d)     0.00127       1.17648
   205    S    9  dx2y2  Ryd( 3d)     0.00078       1.09553
   206    S    9  dz2    Ryd( 3d)     0.00089       1.07099
 
   207    S   10  S      Cor( 1S)     1.00000     -87.65167
   208    S   10  S      Cor( 2S)     0.99974      -8.68709
   209    S   10  S      Val( 3S)     0.85885      -0.62697
   210    S   10  S      Ryd( 5S)     0.00075       1.16626
   211    S   10  S      Ryd( 4S)     0.00112       0.71445
   212    S   10  S      Ryd( 6S)     0.00001      15.43847
   213    S   10  S      Ryd( 7S)     0.00000     180.80212
   214    S   10  px     Cor( 2p)     0.99996      -5.78090
   215    S   10  px     Val( 3p)     0.68180      -0.10469
   216    S   10  px     Ryd( 5p)     0.00066       0.56211
   217    S   10  px     Ryd( 4p)     0.00010       0.53570
   218    S   10  px     Ryd( 6p)     0.00004       2.14121
   219    S   10  px     Ryd( 7p)     0.00000      17.08267
   220    S   10  py     Cor( 2p)     0.99996      -5.78170
   221    S   10  py     Val( 3p)     0.62279      -0.09570
   222    S   10  py     Ryd( 5p)     0.00235       0.57003
   223    S   10  py     Ryd( 4p)     0.00004       0.46270
   224    S   10  py     Ryd( 6p)     0.00004       2.02551
   225    S   10  py     Ryd( 7p)     0.00000      17.12058
   226    S   10  pz     Cor( 2p)     0.99998      -5.77813
   227    S   10  pz     Val( 3p)     0.84246      -0.12486
   228    S   10  pz     Ryd( 5p)     0.00251       0.54037
   229    S   10  pz     Ryd( 4p)     0.00011       0.42131
   230    S   10  pz     Ryd( 6p)     0.00005       2.09148
   231    S   10  pz     Ryd( 7p)     0.00000      17.10131
   232    S   10  dxy    Ryd( 3d)     0.00270       1.28053
   233    S   10  dxz    Ryd( 3d)     0.00156       1.14793
   234    S   10  dyz    Ryd( 3d)     0.00081       1.11155
   235    S   10  dx2y2  Ryd( 3d)     0.00119       1.15566
   236    S   10  dz2    Ryd( 3d)     0.00086       1.11846
 
   237    H   11  S      Val( 1S)     0.39927       0.12487
   238    H   11  S      Ryd( 2S)     0.00120       0.38543
   239    H   11  S      Ryd( 4S)     0.00037       1.63790
   240    H   11  S      Ryd( 3S)     0.00006       1.05800
   241    H   11  px     Ryd( 2p)     0.00012       2.14912
   242    H   11  py     Ryd( 2p)     0.00016       2.38207
   243    H   11  pz     Ryd( 2p)     0.00007       2.15169
 
   244    H   12  S      Val( 1S)     0.41178       0.11140
   245    H   12  S      Ryd( 2S)     0.00126       0.54490
   246    H   12  S      Ryd( 4S)     0.00064       1.53012
   247    H   12  S      Ryd( 3S)     0.00007       1.22028
   248    H   12  px     Ryd( 2p)     0.00012       2.08629
   249    H   12  py     Ryd( 2p)     0.00011       2.14272
   250    H   12  pz     Ryd( 2p)     0.00014       2.49626
 
   251    H   13  S      Val( 1S)     0.38173       0.13633
   252    H   13  S      Ryd( 2S)     0.00083       0.35665
   253    H   13  S      Ryd( 4S)     0.00044       1.65337
   254    H   13  S      Ryd( 3S)     0.00005       1.24392
   255    H   13  px     Ryd( 2p)     0.00008       2.19244
   256    H   13  py     Ryd( 2p)     0.00013       2.36913
   257    H   13  pz     Ryd( 2p)     0.00009       2.14718
 
   258    H   14  S      Val( 1S)     0.39148       0.13905
   259    H   14  S      Ryd( 2S)     0.00211       0.36764
   260    H   14  S      Ryd( 3S)     0.00041       1.39643
   261    H   14  S      Ryd( 4S)     0.00006       1.47623
   262    H   14  px     Ryd( 2p)     0.00012       2.13347
   263    H   14  py     Ryd( 2p)     0.00009       2.11830
   264    H   14  pz     Ryd( 2p)     0.00019       2.69032
 
   265    H   15  S      Val( 1S)     0.38974       0.13649
   266    H   15  S      Ryd( 2S)     0.00276       0.46029
   267    H   15  S      Ryd( 4S)     0.00038       1.50256
   268    H   15  S      Ryd( 3S)     0.00005       1.27911
   269    H   15  px     Ryd( 2p)     0.00009       2.00422
   270    H   15  py     Ryd( 2p)     0.00010       2.19705
   271    H   15  pz     Ryd( 2p)     0.00017       2.68790
 
   272    H   16  S      Val( 1S)     0.38229       0.12774
   273    H   16  S      Ryd( 2S)     0.00248       0.38910
   274    H   16  S      Ryd( 4S)     0.00054       1.72145
   275    H   16  S      Ryd( 3S)     0.00002       1.20872
   276    H   16  px     Ryd( 2p)     0.00008       2.06704
   277    H   16  py     Ryd( 2p)     0.00008       2.04826
   278    H   16  pz     Ryd( 2p)     0.00018       2.71140
 
   279    H   17  S      Val( 1S)     0.41707       0.11397
   280    H   17  S      Ryd( 2S)     0.00124       0.53658
   281    H   17  S      Ryd( 4S)     0.00056       1.57680
   282    H   17  S      Ryd( 3S)     0.00005       1.25031
   283    H   17  px     Ryd( 2p)     0.00004       1.92636
   284    H   17  py     Ryd( 2p)     0.00008       2.06592
   285    H   17  pz     Ryd( 2p)     0.00021       2.74793
 
   286    H   18  S      Val( 1S)     0.40158       0.12578
   287    H   18  S      Ryd( 2S)     0.00116       0.45239
   288    H   18  S      Ryd( 4S)     0.00035       1.44827
   289    H   18  S      Ryd( 3S)     0.00005       1.21224
   290    H   18  px     Ryd( 2p)     0.00010       2.28062
   291    H   18  py     Ryd( 2p)     0.00016       2.42988
   292    H   18  pz     Ryd( 2p)     0.00007       1.95043
 
   293    H   19  S      Val( 1S)     0.42441      -0.01995
   294    H   19  S      Ryd( 2S)     0.00051       0.42403
   295    H   19  S      Ryd( 3S)     0.00062       1.15049
   296    H   19  S      Ryd( 4S)     0.00015       1.44400
   297    H   19  px     Ryd( 2p)     0.00076       1.82176
   298    H   19  py     Ryd( 2p)     0.00053       1.78006
   299    H   19  pz     Ryd( 2p)     0.00078       1.83525
 
   300    H   20  S      Val( 1S)     0.42808      -0.02837
   301    H   20  S      Ryd( 2S)     0.00114       0.41689
   302    H   20  S      Ryd( 3S)     0.00055       0.93013
   303    H   20  S      Ryd( 4S)     0.00009       1.57496
   304    H   20  px     Ryd( 2p)     0.00063       1.81553
   305    H   20  py     Ryd( 2p)     0.00100       2.01439
   306    H   20  pz     Ryd( 2p)     0.00041       1.61153

 WARNING:  Population inversion found on atom  C    1
           Population inversion found on atom  C    2
           Population inversion found on atom  C    3
           Population inversion found on atom  C    6
           Population inversion found on atom  C    7
           Population inversion found on atom  S    9
           Population inversion found on atom  S   10
           Population inversion found on atom  H   11
           Population inversion found on atom  H   12
           Population inversion found on atom  H   13
           Population inversion found on atom  H   15
           Population inversion found on atom  H   16
           Population inversion found on atom  H   17
           Population inversion found on atom  H   18
           Population inversion found on atom  H   19


 Summary of Natural Population Analysis:                  
                                                          
                                       Natural Population 
                Natural  -----------------------------------------------
    Atom  No    Charge         Core      Valence    Rydberg      Total
 -----------------------------------------------------------------------
      C    1   -0.01489      0.99953     2.00164    0.01372     3.01489
      C    2   -0.18207      0.99953     2.17025    0.01229     3.18207
      C    3    0.05181      0.99948     1.93134    0.01737     2.94819
      C    4    0.05108      0.99949     1.93151    0.01791     2.94892
      O    5   -0.30889      0.99989     3.29818    0.01081     4.30889
      C    6   -0.18702      0.99950     2.17388    0.01364     3.18702
      C    7   -0.01267      0.99953     1.99897    0.01417     3.01267
      O    8   -0.30306      0.99989     3.29332    0.00985     4.30306
      S    9   -0.01937      4.99962     3.00459    0.01516     8.01937
      S   10   -0.02044      4.99965     3.00590    0.01489     8.02044
      H   11    0.09875      0.00000     0.39927    0.00198     0.40125
      H   12    0.08589      0.00000     0.41178    0.00233     0.41411
      H   13    0.11666      0.00000     0.38173    0.00161     0.38334
      H   14    0.10554      0.00000     0.39148    0.00297     0.39446
      H   15    0.10672      0.00000     0.38974    0.00354     0.39328
      H   16    0.11433      0.00000     0.38229    0.00338     0.38567
      H   17    0.08075      0.00000     0.41707    0.00218     0.41925
      H   18    0.09653      0.00000     0.40158    0.00189     0.40347
      H   19    0.07225      0.00000     0.42441    0.00334     0.42775
      H   20    0.06810      0.00000     0.42808    0.00382     0.43190
 =======================================================================
   * Total *   -0.00000     17.99612    28.83702    0.16686    47.00000

                                 Natural Population      
 --------------------------------------------------------
   Core                      17.99612 ( 99.9785% of  18)
   Valence                   28.83702 ( 99.4380% of  29)
   Natural Minimal Basis     46.83314 ( 99.6450% of  47)
   Natural Rydberg Basis      0.16686 (  0.3550% of  47)
 --------------------------------------------------------

    Atom  No          Natural Electron Configuration
 ----------------------------------------------------------------------------
      C    1      [core]2S( 0.50)2p( 1.50)3p( 0.01)
      C    2      [core]2S( 0.53)2p( 1.64)3p( 0.01)
      C    3      [core]2S( 0.48)2p( 1.46)3p( 0.01)
      C    4      [core]2S( 0.47)2p( 1.46)3p( 0.01)
      O    5      [core]2S( 0.81)2p( 2.48)3p( 0.01)
      C    6      [core]2S( 0.53)2p( 1.65)3p( 0.01)
      C    7      [core]2S( 0.50)2p( 1.50)3p( 0.01)
      O    8      [core]2S( 0.81)2p( 2.48)3p( 0.01)
      S    9      [core]3S( 0.86)3p( 2.15)3d( 0.01)5p( 0.01)
      S   10      [core]3S( 0.86)3p( 2.15)3d( 0.01)5p( 0.01)
      H   11            1S( 0.40)
      H   12            1S( 0.41)
      H   13            1S( 0.38)
      H   14            1S( 0.39)
      H   15            1S( 0.39)
      H   16            1S( 0.38)
      H   17            1S( 0.42)
      H   18            1S( 0.40)
      H   19            1S( 0.42)
      H   20            1S( 0.43)


 NBO analysis skipped by request.
 1\1\GINC-NODE106\SP\UB3LYP\6-311++G(d,p)\C6H10O2S2(1-,2)\VSC10255\08-D
 ec-2020\0\\# B3LYP/6-311++G(d,p) empiricaldispersion=gd3bj scf=xqc pop
 =npa geom=check\\CID_59745398_JID_832_Energie_anion\\-1,2\C,0,-1.57548
 83234,0.0324761419,0.7305015206\C,0,-1.1137684699,1.1781938666,-0.1691
 651595\C,0,0.2404630468,0.6420759045,-0.6563334708\C,0,0.0165520998,-0
 .8838208526,-0.7284752919\O,0,-1.1628874044,-1.1556784067,0.0426370319
 \C,0,1.2894717587,-1.4470174908,-0.080491706\C,0,1.6268443568,-0.36831
 92847,0.9515791841\O,0,1.2608912666,0.8647604542,0.326899029\S,0,1.153
 8168598,-3.1513636131,0.56195344\S,0,-2.2788098944,1.5041586166,-1.560
 6437464\H,0,-2.6565379452,-0.0189496272,0.8713722445\H,0,-1.0881899752
 ,0.1040025917,1.7131380608\H,0,-0.9970150681,2.1262586851,0.358608671\
 H,0,0.5567539661,1.0973101818,-1.597603164\H,0,-0.1432955624,-1.275174
 0445,-1.7354849778\H,0,2.073260859,-1.4781062343,-0.8445150895\H,0,1.0
 590190082,-0.5291155523,1.8788638696\H,0,2.6901814876,-0.3245192233,1.
 1997645265\H,0,-0.0883067033,-2.9815573924,1.0624738825\H,0,-2.5046153
 631,0.2041952796,-1.8483588548\\Version=ES64L-G16RevA.03\State=2-A\HF=
 -1181.6489387\S2=0.750076\S2-1=0.\S2A=0.75\RMSD=4.289e-09\Dipole=-0.44
 3985,-0.1864337,0.8402543\Quadrupole=-4.2882641,0.0390084,4.2492556,5.
 5056814,-0.8257804,0.9119166\PG=C01 [X(C6H10O2S2)]\\@


 TELEVISION IS CALLED A MEDIUM BECAUSE IT ISN'T
 RARE, AND IT ISN'T WELL DONE.
 Job cpu time:       0 days  0 hours 19 minutes  5.8 seconds.
 Elapsed time:       0 days  0 hours  8 minutes 27.2 seconds.
 File lengths (MBytes):  RWF=    144 Int=      0 D2E=      0 Chk=     16 Scr=      8
 Normal termination of Gaussian 16 at Tue Dec  8 13:23:58 2020.
