 Entering Gaussian System, Link 0=g16
 Initial command:
 /apps/brussel/CO7/ivybridge-ib/software/Gaussian/G16.A.03-intel-2017b/g16/l1.exe "/scratch/brussel/102/vsc10255/3555211[7594].master01.hydra.brussel.vsc/Gau-48315.inp" -scrdir="/scratch/brussel/102/vsc10255/3555211[7594].master01.hydra.brussel.vsc/"
 Entering Link 1 = /apps/brussel/CO7/ivybridge-ib/software/Gaussian/G16.A.03-intel-2017b/g16/l1.exe.bin PID=     48316.
  
 Copyright (c) 1988,1990,1992,1993,1995,1998,2003,2009,2016,
            Gaussian, Inc.  All Rights Reserved.
  
 This is part of the Gaussian(R) 16 program.  It is based on
 the Gaussian(R) 09 system (copyright 2009, Gaussian, Inc.),
 the Gaussian(R) 03 system (copyright 2003, Gaussian, Inc.),
 the Gaussian(R) 98 system (copyright 1998, Gaussian, Inc.),
 the Gaussian(R) 94 system (copyright 1995, Gaussian, Inc.),
 the Gaussian 92(TM) system (copyright 1992, Gaussian, Inc.),
 the Gaussian 90(TM) system (copyright 1990, Gaussian, Inc.),
 the Gaussian 88(TM) system (copyright 1988, Gaussian, Inc.),
 the Gaussian 86(TM) system (copyright 1986, Carnegie Mellon
 University), and the Gaussian 82(TM) system (copyright 1983,
 Carnegie Mellon University). Gaussian is a federally registered
 trademark of Gaussian, Inc.
  
 This software contains proprietary and confidential information,
 including trade secrets, belonging to Gaussian, Inc.
  
 This software is provided under written license and may be
 used, copied, transmitted, or stored only in accord with that
 written license.
  
 The following legend is applicable only to US Government
 contracts under FAR:
  
                    RESTRICTED RIGHTS LEGEND
  
 Use, reproduction and disclosure by the US Government is
 subject to restrictions as set forth in subparagraphs (a)
 and (c) of the Commercial Computer Software - Restricted
 Rights clause in FAR 52.227-19.
  
 Gaussian, Inc.
 340 Quinnipiac St., Bldg. 40, Wallingford CT 06492
  
  
 ---------------------------------------------------------------
 Warning -- This program may not be used in any manner that
 competes with the business of Gaussian, Inc. or will provide
 assistance to any competitor of Gaussian, Inc.  The licensee
 of this program is prohibited from giving any competitor of
 Gaussian, Inc. access to this program.  By using this program,
 the user acknowledges that Gaussian, Inc. is engaged in the
 business of creating and licensing software in the field of
 computational chemistry and represents and warrants to the
 licensee that it is not a competitor of Gaussian, Inc. and that
 it will not use this program in any manner prohibited above.
 ---------------------------------------------------------------
  

 Cite this work as:
 Gaussian 16, Revision A.03,
 M. J. Frisch, G. W. Trucks, H. B. Schlegel, G. E. Scuseria, 
 M. A. Robb, J. R. Cheeseman, G. Scalmani, V. Barone, 
 G. A. Petersson, H. Nakatsuji, X. Li, M. Caricato, A. V. Marenich, 
 J. Bloino, B. G. Janesko, R. Gomperts, B. Mennucci, H. P. Hratchian, 
 J. V. Ortiz, A. F. Izmaylov, J. L. Sonnenberg, D. Williams-Young, 
 F. Ding, F. Lipparini, F. Egidi, J. Goings, B. Peng, A. Petrone, 
 T. Henderson, D. Ranasinghe, V. G. Zakrzewski, J. Gao, N. Rega, 
 G. Zheng, W. Liang, M. Hada, M. Ehara, K. Toyota, R. Fukuda, 
 J. Hasegawa, M. Ishida, T. Nakajima, Y. Honda, O. Kitao, H. Nakai, 
 T. Vreven, K. Throssell, J. A. Montgomery, Jr., J. E. Peralta, 
 F. Ogliaro, M. J. Bearpark, J. J. Heyd, E. N. Brothers, K. N. Kudin, 
 V. N. Staroverov, T. A. Keith, R. Kobayashi, J. Normand, 
 K. Raghavachari, A. P. Rendell, J. C. Burant, S. S. Iyengar, 
 J. Tomasi, M. Cossi, J. M. Millam, M. Klene, C. Adamo, R. Cammi, 
 J. W. Ochterski, R. L. Martin, K. Morokuma, O. Farkas, 
 J. B. Foresman, and D. J. Fox, Gaussian, Inc., Wallingford CT, 2016.
 
 ******************************************
 Gaussian 16:  ES64L-G16RevA.03 25-Dec-2016
                11-Dec-2020 
 ******************************************
 %chk=JID_7594.chk
 %mem=8GB
 %nprocshared=4
 Will use up to    4 processors via shared memory.
 -----------------------------------------------------------
 # opt freq B3LYP/6-31G(d) empiricaldispersion=gd3bj scf=xqc
 -----------------------------------------------------------
 1/18=20,19=15,26=3,38=1/1,3;
 2/9=110,12=2,17=6,18=5,40=1/2;
 3/5=1,6=6,7=1,11=2,25=1,30=1,71=1,74=-5,124=41/1,2,3;
 4//1;
 5/5=2,8=3,13=1,38=5/2,8;
 6/7=2,8=2,9=2,10=2,28=1/1;
 7//1,2,3,16;
 1/18=20,19=15,26=3/3(2);
 2/9=110/2;
 99//99;
 2/9=110/2;
 3/5=1,6=6,7=1,11=2,25=1,30=1,71=1,74=-5,124=41/1,2,3;
 4/5=5,16=3,69=1/1;
 5/5=2,8=3,13=1,38=5/2,8;
 7//1,2,3,16;
 1/18=20,19=15,26=3/3(-5);
 2/9=110/2;
 6/7=2,8=2,9=2,10=2,19=2,28=1/1;
 99/9=1/99;
 ------------------------------
 CID_63557376_JID_7594_neutraal
 ------------------------------
 Symbolic Z-matrix:
 Charge =  0 Multiplicity = 1
 C                    -1.106    -0.72     -0.207 
 C                     0.1685   -1.457     0.15664 
 O                     1.27312  -0.63968  -0.26177 
 C                     0.74863   0.63904  -0.67614 
 C                    -0.66004   0.72216  -0.09833 
 N                    -1.5733    1.7297   -0.68258 
 C                    -2.80694   1.98841   0.09598 
 C                    -3.27039   3.43616  -0.04459 
 C                    -4.2292    3.59523  -1.1855 
 O                    -5.18122   2.8738   -1.43877 
 O                    -3.99456   4.70314  -1.91498 
 C                    -1.72898   1.71793  -2.07447 
 C                    -0.89885   2.53731  -2.85238 
 C                    -1.0182    2.57872  -4.24379 
 C                    -1.97873   1.80002  -4.88223 
 C                    -2.81871   0.98578  -4.12813 
 C                    -2.69463   0.94827  -2.73609 
 H                    -1.3907   -0.98355  -1.23069 
 H                    -1.94238  -0.97441   0.45023 
 H                     0.24951  -1.59451   1.24023 
 H                     0.23578  -2.43757  -0.32306 
 H                     0.77635   0.64947  -1.76901 
 H                     1.39963   1.43651  -0.30557 
 H                    -0.54475   0.95753   0.96983 
 H                    -3.59572   1.26396  -0.13714 
 H                    -2.57403   1.8405    1.15852 
 H                    -3.8091    3.74912   0.85735 
 H                    -2.41642   4.11158  -0.16958 
 H                    -4.65534   4.65836  -2.63649 
 H                    -0.15472   3.16256  -2.36478 
 H                    -0.36254   3.22185  -4.82418 
 H                    -2.0742    1.82897  -5.96418 
 H                    -3.57415   0.37813  -4.61924 
 H                    -3.36529   0.30235  -2.17642 
 

 GradGradGradGradGradGradGradGradGradGradGradGradGradGradGradGradGradGrad
 Berny optimization.
 Initialization pass.
                           ----------------------------
                           !    Initial Parameters    !
                           ! (Angstroms and Degrees)  !
 --------------------------                            --------------------------
 ! Name  Definition              Value          Derivative Info.                !
 --------------------------------------------------------------------------------
 ! R1    R(1,2)                  1.5165         estimate D2E/DX2                !
 ! R2    R(1,5)                  1.5134         estimate D2E/DX2                !
 ! R3    R(1,18)                 1.0947         estimate D2E/DX2                !
 ! R4    R(1,19)                 1.0937         estimate D2E/DX2                !
 ! R5    R(2,3)                  1.4364         estimate D2E/DX2                !
 ! R6    R(2,20)                 1.0953         estimate D2E/DX2                !
 ! R7    R(2,21)                 1.0937         estimate D2E/DX2                !
 ! R8    R(3,4)                  1.4429         estimate D2E/DX2                !
 ! R9    R(4,5)                  1.5248         estimate D2E/DX2                !
 ! R10   R(4,22)                 1.0933         estimate D2E/DX2                !
 ! R11   R(4,23)                 1.0941         estimate D2E/DX2                !
 ! R12   R(5,6)                  1.48           estimate D2E/DX2                !
 ! R13   R(5,24)                 1.0998         estimate D2E/DX2                !
 ! R14   R(6,7)                  1.4815         estimate D2E/DX2                !
 ! R15   R(6,12)                 1.4006         estimate D2E/DX2                !
 ! R16   R(7,8)                  1.5266         estimate D2E/DX2                !
 ! R17   R(7,25)                 1.0961         estimate D2E/DX2                !
 ! R18   R(7,26)                 1.0978         estimate D2E/DX2                !
 ! R19   R(8,9)                  1.4988         estimate D2E/DX2                !
 ! R20   R(8,27)                 1.0962         estimate D2E/DX2                !
 ! R21   R(8,28)                 1.0959         estimate D2E/DX2                !
 ! R22   R(9,10)                 1.221          estimate D2E/DX2                !
 ! R23   R(9,11)                 1.3471         estimate D2E/DX2                !
 ! R24   R(11,29)                0.9794         estimate D2E/DX2                !
 ! R25   R(12,13)                1.402          estimate D2E/DX2                !
 ! R26   R(12,17)                1.4009         estimate D2E/DX2                !
 ! R27   R(13,14)                1.3971         estimate D2E/DX2                !
 ! R28   R(13,30)                1.0874         estimate D2E/DX2                !
 ! R29   R(14,15)                1.3916         estimate D2E/DX2                !
 ! R30   R(14,31)                1.0864         estimate D2E/DX2                !
 ! R31   R(15,16)                1.3918         estimate D2E/DX2                !
 ! R32   R(15,32)                1.0865         estimate D2E/DX2                !
 ! R33   R(16,17)                1.3981         estimate D2E/DX2                !
 ! R34   R(16,33)                1.0868         estimate D2E/DX2                !
 ! R35   R(17,34)                1.0864         estimate D2E/DX2                !
 ! A1    A(2,1,5)              101.4339         estimate D2E/DX2                !
 ! A2    A(2,1,18)             109.0136         estimate D2E/DX2                !
 ! A3    A(2,1,19)             112.6777         estimate D2E/DX2                !
 ! A4    A(5,1,18)             111.9117         estimate D2E/DX2                !
 ! A5    A(5,1,19)             113.8186         estimate D2E/DX2                !
 ! A6    A(18,1,19)            107.8812         estimate D2E/DX2                !
 ! A7    A(1,2,3)              107.453          estimate D2E/DX2                !
 ! A8    A(1,2,20)             111.1251         estimate D2E/DX2                !
 ! A9    A(1,2,21)             112.4732         estimate D2E/DX2                !
 ! A10   A(3,2,20)             107.6222         estimate D2E/DX2                !
 ! A11   A(3,2,21)             109.5776         estimate D2E/DX2                !
 ! A12   A(20,2,21)            108.4703         estimate D2E/DX2                !
 ! A13   A(2,3,4)              107.9616         estimate D2E/DX2                !
 ! A14   A(3,4,5)              105.9796         estimate D2E/DX2                !
 ! A15   A(3,4,22)             106.6374         estimate D2E/DX2                !
 ! A16   A(3,4,23)             109.4142         estimate D2E/DX2                !
 ! A17   A(5,4,22)             113.6843         estimate D2E/DX2                !
 ! A18   A(5,4,23)             112.4328         estimate D2E/DX2                !
 ! A19   A(22,4,23)            108.4532         estimate D2E/DX2                !
 ! A20   A(1,5,4)              101.1317         estimate D2E/DX2                !
 ! A21   A(1,5,6)              116.0094         estimate D2E/DX2                !
 ! A22   A(1,5,24)             107.7308         estimate D2E/DX2                !
 ! A23   A(4,5,6)              117.2301         estimate D2E/DX2                !
 ! A24   A(4,5,24)             106.43           estimate D2E/DX2                !
 ! A25   A(6,5,24)             107.6005         estimate D2E/DX2                !
 ! A26   A(5,6,7)              115.1653         estimate D2E/DX2                !
 ! A27   A(5,6,12)             117.075          estimate D2E/DX2                !
 ! A28   A(7,6,12)             115.5404         estimate D2E/DX2                !
 ! A29   A(6,7,8)              111.7156         estimate D2E/DX2                !
 ! A30   A(6,7,25)             111.8419         estimate D2E/DX2                !
 ! A31   A(6,7,26)             107.9657         estimate D2E/DX2                !
 ! A32   A(8,7,25)             112.8774         estimate D2E/DX2                !
 ! A33   A(8,7,26)             106.3384         estimate D2E/DX2                !
 ! A34   A(25,7,26)            105.634          estimate D2E/DX2                !
 ! A35   A(7,8,9)              111.405          estimate D2E/DX2                !
 ! A36   A(7,8,27)             110.1316         estimate D2E/DX2                !
 ! A37   A(7,8,28)             111.0023         estimate D2E/DX2                !
 ! A38   A(9,8,27)             106.3585         estimate D2E/DX2                !
 ! A39   A(9,8,28)             110.2589         estimate D2E/DX2                !
 ! A40   A(27,8,28)            107.507          estimate D2E/DX2                !
 ! A41   A(8,9,10)             126.4395         estimate D2E/DX2                !
 ! A42   A(8,9,11)             112.8353         estimate D2E/DX2                !
 ! A43   A(10,9,11)            120.6244         estimate D2E/DX2                !
 ! A44   A(9,11,29)            104.1116         estimate D2E/DX2                !
 ! A45   A(6,12,13)            118.7292         estimate D2E/DX2                !
 ! A46   A(6,12,17)            123.4056         estimate D2E/DX2                !
 ! A47   A(13,12,17)           117.8508         estimate D2E/DX2                !
 ! A48   A(12,13,14)           121.2867         estimate D2E/DX2                !
 ! A49   A(12,13,30)           119.5006         estimate D2E/DX2                !
 ! A50   A(14,13,30)           119.2087         estimate D2E/DX2                !
 ! A51   A(13,14,15)           119.952          estimate D2E/DX2                !
 ! A52   A(13,14,31)           119.8687         estimate D2E/DX2                !
 ! A53   A(15,14,31)           120.179          estimate D2E/DX2                !
 ! A54   A(14,15,16)           119.6921         estimate D2E/DX2                !
 ! A55   A(14,15,32)           120.1706         estimate D2E/DX2                !
 ! A56   A(16,15,32)           120.1372         estimate D2E/DX2                !
 ! A57   A(15,16,17)           120.106          estimate D2E/DX2                !
 ! A58   A(15,16,33)           120.1164         estimate D2E/DX2                !
 ! A59   A(17,16,33)           119.7775         estimate D2E/DX2                !
 ! A60   A(12,17,16)           121.1094         estimate D2E/DX2                !
 ! A61   A(12,17,34)           120.5886         estimate D2E/DX2                !
 ! A62   A(16,17,34)           118.3015         estimate D2E/DX2                !
 ! D1    D(5,1,2,3)            -30.2947         estimate D2E/DX2                !
 ! D2    D(5,1,2,20)            87.2013         estimate D2E/DX2                !
 ! D3    D(5,1,2,21)          -150.9702         estimate D2E/DX2                !
 ! D4    D(18,1,2,3)            87.8954         estimate D2E/DX2                !
 ! D5    D(18,1,2,20)         -154.6086         estimate D2E/DX2                !
 ! D6    D(18,1,2,21)          -32.7801         estimate D2E/DX2                !
 ! D7    D(19,1,2,3)          -152.3714         estimate D2E/DX2                !
 ! D8    D(19,1,2,20)          -34.8754         estimate D2E/DX2                !
 ! D9    D(19,1,2,21)           86.9531         estimate D2E/DX2                !
 ! D10   D(2,1,5,4)             38.7239         estimate D2E/DX2                !
 ! D11   D(2,1,5,6)            166.6686         estimate D2E/DX2                !
 ! D12   D(2,1,5,24)           -72.718          estimate D2E/DX2                !
 ! D13   D(18,1,5,4)           -77.3559         estimate D2E/DX2                !
 ! D14   D(18,1,5,6)            50.5888         estimate D2E/DX2                !
 ! D15   D(18,1,5,24)          171.2022         estimate D2E/DX2                !
 ! D16   D(19,1,5,4)           160.0063         estimate D2E/DX2                !
 ! D17   D(19,1,5,6)           -72.049          estimate D2E/DX2                !
 ! D18   D(19,1,5,24)           48.5644         estimate D2E/DX2                !
 ! D19   D(1,2,3,4)              8.4821         estimate D2E/DX2                !
 ! D20   D(20,2,3,4)          -111.2712         estimate D2E/DX2                !
 ! D21   D(21,2,3,4)           130.9683         estimate D2E/DX2                !
 ! D22   D(2,3,4,5)             16.9697         estimate D2E/DX2                !
 ! D23   D(2,3,4,22)          -104.4747         estimate D2E/DX2                !
 ! D24   D(2,3,4,23)           138.4222         estimate D2E/DX2                !
 ! D25   D(3,4,5,1)            -35.2937         estimate D2E/DX2                !
 ! D26   D(3,4,5,6)           -162.4424         estimate D2E/DX2                !
 ! D27   D(3,4,5,24)            77.1406         estimate D2E/DX2                !
 ! D28   D(22,4,5,1)            81.5029         estimate D2E/DX2                !
 ! D29   D(22,4,5,6)           -45.6458         estimate D2E/DX2                !
 ! D30   D(22,4,5,24)         -166.0629         estimate D2E/DX2                !
 ! D31   D(23,4,5,1)          -154.7844         estimate D2E/DX2                !
 ! D32   D(23,4,5,6)            78.0669         estimate D2E/DX2                !
 ! D33   D(23,4,5,24)          -42.3501         estimate D2E/DX2                !
 ! D34   D(1,5,6,7)             73.7439         estimate D2E/DX2                !
 ! D35   D(1,5,6,12)           -67.0751         estimate D2E/DX2                !
 ! D36   D(4,5,6,7)           -166.7388         estimate D2E/DX2                !
 ! D37   D(4,5,6,12)            52.4422         estimate D2E/DX2                !
 ! D38   D(24,5,6,7)           -46.9396         estimate D2E/DX2                !
 ! D39   D(24,5,6,12)          172.2414         estimate D2E/DX2                !
 ! D40   D(5,6,7,8)            147.8513         estimate D2E/DX2                !
 ! D41   D(5,6,7,25)           -84.5265         estimate D2E/DX2                !
 ! D42   D(5,6,7,26)            31.2705         estimate D2E/DX2                !
 ! D43   D(12,6,7,8)           -70.718          estimate D2E/DX2                !
 ! D44   D(12,6,7,25)           56.9041         estimate D2E/DX2                !
 ! D45   D(12,6,7,26)          172.7012         estimate D2E/DX2                !
 ! D46   D(5,6,12,13)          -92.4036         estimate D2E/DX2                !
 ! D47   D(5,6,12,17)           89.0108         estimate D2E/DX2                !
 ! D48   D(7,6,12,13)          126.9227         estimate D2E/DX2                !
 ! D49   D(7,6,12,17)          -51.6629         estimate D2E/DX2                !
 ! D50   D(6,7,8,9)             91.0702         estimate D2E/DX2                !
 ! D51   D(6,7,8,27)          -151.1618         estimate D2E/DX2                !
 ! D52   D(6,7,8,28)           -32.2195         estimate D2E/DX2                !
 ! D53   D(25,7,8,9)           -35.9937         estimate D2E/DX2                !
 ! D54   D(25,7,8,27)           81.7743         estimate D2E/DX2                !
 ! D55   D(25,7,8,28)         -159.2834         estimate D2E/DX2                !
 ! D56   D(26,7,8,9)          -151.3663         estimate D2E/DX2                !
 ! D57   D(26,7,8,27)          -33.5983         estimate D2E/DX2                !
 ! D58   D(26,7,8,28)           85.344          estimate D2E/DX2                !
 ! D59   D(7,8,9,10)            45.8939         estimate D2E/DX2                !
 ! D60   D(7,8,9,11)          -137.7664         estimate D2E/DX2                !
 ! D61   D(27,8,9,10)          -74.1282         estimate D2E/DX2                !
 ! D62   D(27,8,9,11)          102.2115         estimate D2E/DX2                !
 ! D63   D(28,8,9,10)          169.6066         estimate D2E/DX2                !
 ! D64   D(28,8,9,11)          -14.0538         estimate D2E/DX2                !
 ! D65   D(8,9,11,29)          177.4669         estimate D2E/DX2                !
 ! D66   D(10,9,11,29)          -5.9548         estimate D2E/DX2                !
 ! D67   D(6,12,13,14)        -179.2705         estimate D2E/DX2                !
 ! D68   D(6,12,13,30)          -0.0041         estimate D2E/DX2                !
 ! D69   D(17,12,13,14)         -0.6059         estimate D2E/DX2                !
 ! D70   D(17,12,13,30)        178.6605         estimate D2E/DX2                !
 ! D71   D(6,12,17,16)         179.1953         estimate D2E/DX2                !
 ! D72   D(6,12,17,34)          -1.0359         estimate D2E/DX2                !
 ! D73   D(13,12,17,16)          0.598          estimate D2E/DX2                !
 ! D74   D(13,12,17,34)       -179.6331         estimate D2E/DX2                !
 ! D75   D(12,13,14,15)          0.2281         estimate D2E/DX2                !
 ! D76   D(12,13,14,31)       -179.9803         estimate D2E/DX2                !
 ! D77   D(30,13,14,15)       -179.0404         estimate D2E/DX2                !
 ! D78   D(30,13,14,31)          0.7513         estimate D2E/DX2                !
 ! D79   D(13,14,15,16)          0.1749         estimate D2E/DX2                !
 ! D80   D(13,14,15,32)       -179.9588         estimate D2E/DX2                !
 ! D81   D(31,14,15,16)       -179.6162         estimate D2E/DX2                !
 ! D82   D(31,14,15,32)          0.2502         estimate D2E/DX2                !
 ! D83   D(14,15,16,17)         -0.1817         estimate D2E/DX2                !
 ! D84   D(14,15,16,33)        179.7305         estimate D2E/DX2                !
 ! D85   D(32,15,16,17)        179.9518         estimate D2E/DX2                !
 ! D86   D(32,15,16,33)         -0.1359         estimate D2E/DX2                !
 ! D87   D(15,16,17,12)         -0.2142         estimate D2E/DX2                !
 ! D88   D(15,16,17,34)       -179.9882         estimate D2E/DX2                !
 ! D89   D(33,16,17,12)        179.8733         estimate D2E/DX2                !
 ! D90   D(33,16,17,34)          0.0993         estimate D2E/DX2                !
 --------------------------------------------------------------------------------
 Trust Radius=3.00D-01 FncErr=1.00D-07 GrdErr=1.00D-06 EigMax=2.50D+02 EigMin=1.00D-04
 Number of steps in this run=    197 maximum allowed number of steps=    204.
 GradGradGradGradGradGradGradGradGradGradGradGradGradGradGradGradGradGrad

                          Input orientation:                          
 ---------------------------------------------------------------------
 Center     Atomic      Atomic             Coordinates (Angstroms)
 Number     Number       Type             X           Y           Z
 ---------------------------------------------------------------------
      1          6           0       -1.106000   -0.720000   -0.207000
      2          6           0        0.168500   -1.457000    0.156640
      3          8           0        1.273120   -0.639680   -0.261770
      4          6           0        0.748630    0.639040   -0.676140
      5          6           0       -0.660040    0.722160   -0.098330
      6          7           0       -1.573300    1.729700   -0.682580
      7          6           0       -2.806940    1.988410    0.095980
      8          6           0       -3.270390    3.436160   -0.044590
      9          6           0       -4.229200    3.595230   -1.185500
     10          8           0       -5.181220    2.873800   -1.438770
     11          8           0       -3.994560    4.703140   -1.914980
     12          6           0       -1.728980    1.717930   -2.074470
     13          6           0       -0.898850    2.537310   -2.852380
     14          6           0       -1.018200    2.578720   -4.243790
     15          6           0       -1.978730    1.800020   -4.882230
     16          6           0       -2.818710    0.985780   -4.128130
     17          6           0       -2.694630    0.948270   -2.736090
     18          1           0       -1.390700   -0.983550   -1.230690
     19          1           0       -1.942380   -0.974410    0.450230
     20          1           0        0.249510   -1.594510    1.240230
     21          1           0        0.235780   -2.437570   -0.323060
     22          1           0        0.776350    0.649470   -1.769010
     23          1           0        1.399630    1.436510   -0.305570
     24          1           0       -0.544750    0.957530    0.969830
     25          1           0       -3.595720    1.263960   -0.137140
     26          1           0       -2.574030    1.840500    1.158520
     27          1           0       -3.809100    3.749120    0.857350
     28          1           0       -2.416420    4.111580   -0.169580
     29          1           0       -4.655340    4.658360   -2.636490
     30          1           0       -0.154720    3.162560   -2.364780
     31          1           0       -0.362540    3.221850   -4.824180
     32          1           0       -2.074200    1.828970   -5.964180
     33          1           0       -3.574150    0.378130   -4.619240
     34          1           0       -3.365290    0.302350   -2.176420
 ---------------------------------------------------------------------
                    Distance matrix (angstroms):
                    1          2          3          4          5
     1  C    0.000000
     2  C    1.516494   0.000000
     3  O    2.381105   1.436407   0.000000
     4  C    2.346643   2.328832   1.442885   0.000000
     5  C    1.513445   2.345256   2.370322   1.524836   0.000000
     6  N    2.538814   3.727360   3.727352   2.565334   1.480043
     7  C    3.212550   4.552776   4.866388   3.880599   2.500065
     8  C    4.688777   5.984102   6.107628   4.937130   3.765981
     9  C    5.415999   6.831261   7.004517   5.811824   4.709073
    10  O    5.571362   7.065456   7.442337   6.382701   5.183378
    11  O    6.377415   7.718161   7.682921   6.367848   5.501585
    12  C    3.133536   4.319544   4.225732   3.042677   2.457503
    13  C    4.201311   5.113507   4.639179   3.324701   3.307052
    14  C    5.213918   6.087617   5.609343   4.428563   4.556307
    15  C    5.382373   6.372518   6.154292   5.145635   5.078034
    16  C    4.606335   5.766268   5.859516   4.976181   4.579153
    17  C    3.420989   4.727655   4.938308   4.024308   3.338931
    18  H    1.094739   2.140080   2.855344   2.741725   2.173833
    19  H    1.093713   2.185155   3.310352   3.333686   2.196284
    20  H    2.167176   1.095280   2.053164   2.985019   2.825948
    21  H    2.182634   1.093689   2.076593   3.138982   3.291943
    22  H    2.803313   2.918017   2.044617   1.093271   2.204466
    23  H    3.307330   3.178320   2.080502   1.094112   2.189860
    24  H    2.124626   2.645743   2.715248   2.117424   1.099844
    25  H    3.184287   4.653953   5.229243   4.422038   2.985510
    26  H    3.252064   4.404400   4.792607   3.981150   2.548277
    27  H    5.330349   6.589080   6.807566   5.726875   4.471285
    28  H    5.006273   6.147952   6.016284   4.725746   3.818130
    29  H    6.886726   8.274578   8.297901   7.014328   6.156163
    30  H    4.542601   5.272795   4.573665   3.167917   3.368634
    31  H    6.116311   6.854357   6.196966   5.011172   5.354495
    32  H    6.370226   7.300119   7.058064   6.111274   6.134580
    33  H    5.173540   6.339098   6.596932   5.856837   5.389714
    34  H    3.166734   4.585428   5.105698   4.391872   3.437016
                    6          7          8          9         10
     6  N    0.000000
     7  C    1.481538   0.000000
     8  C    2.489810   1.526606   0.000000
     9  C    3.284347   2.499377   1.498765   0.000000
    10  O    3.859777   2.962529   2.431308   1.221044   0.000000
    11  O    4.027736   3.581084   2.372345   1.347094   2.231910
    12  C    1.400619   2.438444   3.073869   3.250480   3.695688
    13  C    2.411462   3.554564   3.783625   3.871552   4.522191
    14  C    3.702862   4.730926   4.841575   4.549390   5.028513
    15  C    4.219760   5.050148   5.267647   4.685425   4.823522
    16  C    3.738486   4.341487   4.783689   4.178251   4.047064
    17  C    2.466762   3.019127   3.710157   3.430107   3.402034
    18  H    2.774075   3.549413   4.947111   5.387425   5.412069
    19  H    2.954943   3.106648   4.632665   5.365330   5.372814
    20  H    4.250907   4.846495   6.272806   7.271617   7.525667
    21  H    4.557210   5.387303   6.846275   7.554768   7.668073
    22  H    2.805010   4.255692   5.207242   5.837252   6.367837
    23  H    3.011048   4.261580   5.086826   6.092461   6.830632
    24  H    2.093949   2.635115   3.821226   5.017776   5.565096
    25  H    2.145833   1.096060   2.198376   2.633472   2.607611
    26  H    2.098425   1.097778   2.116252   3.363494   3.822442
    27  H    3.383525   2.164280   1.096197   2.091268   2.814439
    28  H    2.578250   2.175058   1.095938   2.141234   3.284366
    29  H    4.679079   4.244008   3.182735   1.848570   2.212631
    30  H    2.625882   3.803714   3.894296   4.263718   5.119236
    31  H    4.565666   5.630670   5.598750   5.322637   5.899306
    32  H    5.306228   6.106379   6.249438   5.531680   5.587896
    33  H    4.618164   5.041321   5.511011   4.750726   4.350452
    34  H    2.734980   2.884156   3.791368   3.545606   3.233278
                   11         12         13         14         15
    11  O    0.000000
    12  C    3.750969   0.000000
    13  C    3.892680   1.402014   0.000000
    14  C    4.335347   2.439696   1.397133   0.000000
    15  C    4.614786   2.820041   2.414545   1.391617   0.000000
    16  C    4.483238   2.437432   2.778605   2.406797   1.391841
    17  C    4.057473   1.400927   2.400708   2.782435   2.417418
    18  H    6.291803   2.850332   3.907461   4.680523   4.629016
    19  H    6.483844   3.697072   4.932379   5.959250   6.011149
    20  H    8.223617   5.086641   5.927911   7.006955   7.346591
    21  H    8.451019   4.918933   5.695110   6.489049   6.606607
    22  H    6.262198   2.740728   2.746621   3.614824   4.313510
    23  H    6.508330   3.605053   3.602917   4.760265   5.700112
    24  H    5.852599   3.353859   4.150949   5.480351   6.083806
    25  H    3.892011   2.728379   4.033244   5.023622   5.041616
    26  H    4.433849   3.343854   4.402169   5.670144   6.070147
    27  H    2.937748   4.128947   4.868278   5.931323   6.331826
    28  H    2.426291   3.135401   3.461035   4.572075   5.267253
    29  H    0.979394   4.186356   4.319338   4.487438   4.514166
    30  H    4.161740   2.156277   1.087392   2.148754   3.394272
    31  H    4.883568   3.419041   2.155045   1.086443   2.153379
    32  H    5.323970   3.906578   3.400955   2.153370   1.086540
    33  H    5.118152   3.416953   3.865370   3.393588   2.153207
    34  H    4.453233   2.166050   3.396365   3.868425   3.389244
                   16         17         18         19         20
    16  C    0.000000
    17  C    1.398062   0.000000
    18  H    3.783204   2.774597   0.000000
    19  H    5.056845   3.796737   1.769160   0.000000
    20  H    6.700087   5.562806   3.028037   2.411018   0.000000
    21  H    5.960519   5.086642   2.362923   2.735543   1.776180
    22  H    4.313120   3.615554   2.766342   3.866976   3.790585
    23  H    5.710474   4.786311   3.807687   4.189606   3.591567
    24  H    5.582194   4.284380   3.053803   2.440440   2.686424
    25  H    4.075430   2.768784   3.333057   2.844088   4.985358
    26  H    5.360885   3.997325   3.883794   2.970585   4.447286
    27  H    5.785493   4.690375   5.710231   5.095304   6.721108
    28  H    5.059899   4.083002   5.304565   5.145500   6.454007
    29  H    4.368758   4.197508   6.668230   6.972524   8.842222
    30  H    3.865827   3.389999   4.472587   5.313617   5.982409
    31  H    3.393710   3.868841   5.626337   6.922709   7.768462
    32  H    2.153217   3.403106   5.548276   7.001498   8.308030
    33  H    1.086792   2.155196   4.254867   5.494685   7.269462
    34  H    2.138925   1.086383   2.539084   3.248704   5.323378
                   21         22         23         24         25
    21  H    0.000000
    22  H    3.451493   0.000000
    23  H    4.045164   1.774702   0.000000
    24  H    3.715844   3.056379   2.374169   0.000000
    25  H    5.330693   4.706973   5.001166   3.260015   0.000000
    26  H    5.328414   4.605869   4.254026   2.221085   1.747851
    27  H    7.485289   6.126332   5.816478   4.296697   2.685249
    28  H    7.067467   4.973747   4.662267   3.840499   3.082327
    29  H    8.923409   6.806392   7.244044   6.602926   4.346435
    30  H    5.973489   2.745443   3.104126   4.016703   4.517471
    31  H    7.255832   4.153104   5.168222   6.223415   6.021223
    32  H    7.440538   5.207332   6.651420   7.153958   6.048856
    33  H    6.395381   5.208098   6.668313   6.383625   4.568849
    34  H    4.889766   4.176082   5.243173   4.275932   2.266375
                   26         27         28         29         30
    26  H    0.000000
    27  H    2.293236   0.000000
    28  H    2.635620   1.767914   0.000000
    29  H    5.164716   3.708067   3.376000   0.000000
    30  H    4.473762   4.907206   3.291630   4.750455   0.000000
    31  H    6.526218   6.666076   5.164818   5.027691   2.468877
    32  H    7.140225   7.295898   6.237372   5.073584   4.291683
    33  H    6.043284   6.435201   5.922707   4.839487   4.952589
    34  H    3.756837   4.613128   4.408854   4.566258   4.303956
                   31         32         33         34
    31  H    0.000000
    32  H    2.483847   0.000000
    33  H    4.294553   2.482670   0.000000
    34  H    4.954858   4.283061   2.452903   0.000000
 Stoichiometry    C13H17NO3
 Framework group  C1[X(C13H17NO3)]
 Deg. of freedom    96
 Full point group                 C1      NOp   1
 Largest Abelian subgroup         C1      NOp   1
 Largest concise Abelian subgroup C1      NOp   1
                         Standard orientation:                         
 ---------------------------------------------------------------------
 Center     Atomic      Atomic             Coordinates (Angstroms)
 Number     Number       Type             X           Y           Z
 ---------------------------------------------------------------------
      1          6           0       -2.467990   -0.682749    1.081473
      2          6           0       -3.940020   -0.508325    0.761382
      3          8           0       -4.028989    0.138449   -0.518083
      4          6           0       -2.703219    0.186583   -1.085475
      5          6           0       -1.874857   -0.826984   -0.303411
      6          7           0       -0.402068   -0.711944   -0.393887
      7          6           0        0.353632   -1.878896    0.118063
      8          6           0        1.656451   -2.089024   -0.649422
      9          6           0        2.794796   -1.357033   -0.005484
     10          8           0        3.063738   -1.337923    1.185421
     11          8           0        3.593707   -0.742697   -0.899348
     12          6           0        0.157992    0.540692   -0.112871
     13          6           0        0.377614    1.433474   -1.171336
     14          6           0        0.947080    2.690614   -0.953877
     15          6           0        1.312288    3.074774    0.332841
     16          6           0        1.110637    2.200361    1.396777
     17          6           0        0.540247    0.943673    1.173241
     18          1           0       -2.104623    0.216069    1.589945
     19          1           0       -2.277117   -1.538672    1.735056
     20          1           0       -4.443556   -1.477480    0.678742
     21          1           0       -4.462946    0.090941    1.512105
     22          1           0       -2.353539    1.216732   -0.977031
     23          1           0       -2.755325   -0.050974   -2.152214
     24          1           0       -2.155066   -1.819291   -0.686121
     25          1           0        0.502020   -1.824690    1.202678
     26          1           0       -0.253823   -2.777165   -0.052901
     27          1           0        1.929992   -3.150534   -0.644914
     28          1           0        1.550177   -1.780398   -1.695623
     29          1           0        4.256673   -0.278604   -0.347709
     30          1           0        0.111256    1.139537   -2.183796
     31          1           0        1.106657    3.364456   -1.791033
     32          1           0        1.754821    4.051868    0.506105
     33          1           0        1.397321    2.491568    2.403817
     34          1           0        0.396009    0.284660    2.024783
 ---------------------------------------------------------------------
 Rotational constants (GHZ):           0.6874786           0.3423180           0.2758410
 Standard basis: 6-31G(d) (6D, 7F)
 There are   289 symmetry adapted cartesian basis functions of A   symmetry.
 There are   289 symmetry adapted basis functions of A   symmetry.
   289 basis functions,   544 primitive gaussians,   289 cartesian basis functions
    63 alpha electrons       63 beta electrons
       nuclear repulsion energy      1255.3292644049 Hartrees.
 NAtoms=   34 NActive=   34 NUniq=   34 SFac= 1.00D+00 NAtFMM=   60 NAOKFM=F Big=F
 Integral buffers will be    131072 words long.
 Raffenetti 2 integral format.
 Two-electron integral symmetry is turned on.
 Nuclear repulsion after empirical dispersion term =     1255.2598789882 Hartrees.
 One-electron integrals computed using PRISM.
 NBasis=   289 RedAO= T EigKep=  4.35D-04  NBF=   289
 NBsUse=   289 1.00D-06 EigRej= -1.00D+00 NBFU=   289
 ExpMin= 1.61D-01 ExpMax= 5.48D+03 ExpMxC= 8.25D+02 IAcc=3 IRadAn=         5 AccDes= 0.00D+00
 Harris functional with IExCor=  402 and IRadAn=       5 diagonalized for initial guess.
 HarFok:  IExCor=  402 AccDes= 0.00D+00 IRadAn=         5 IDoV= 1 UseB2=F ITyADJ=14
 ICtDFT=  3500011 ScaDFX=  1.000000  1.000000  1.000000  1.000000
 FoFCou: FMM=F IPFlag=           0 FMFlag=      100000 FMFlg1=           0
         NFxFlg=           0 DoJE=T BraDBF=F KetDBF=T FulRan=T
         wScrn=  0.000000 ICntrl=       500 IOpCl=  0 I1Cent=   200000004 NGrid=           0
         NMat0=    1 NMatS0=      1 NMatT0=    0 NMatD0=    1 NMtDS0=    0 NMtDT0=    0
 Petite list used in FoFCou.
 Requested convergence on RMS density matrix=1.00D-08 within  32 cycles.
 Requested convergence on MAX density matrix=1.00D-06.
 Requested convergence on             energy=1.00D-06.
 No special actions if energy rises.
 Integral accuracy reduced to 1.0D-05 until final iterations.
 Initial convergence to 1.0D-05 achieved.  Increase integral accuracy.
 SCF Done:  E(RB3LYP) =  -786.084232355     A.U. after   15 cycles
            NFock= 15  Conv=0.40D-08     -V/T= 2.0092
 QCSCF skips out because SCF is already converged.

 **********************************************************************

            Population analysis using the SCF density.

 **********************************************************************

 Orbital symmetries:
       Occupied  (A) (A) (A) (A) (A) (A) (A) (A) (A) (A) (A) (A)
                 (A) (A) (A) (A) (A) (A) (A) (A) (A) (A) (A) (A)
                 (A) (A) (A) (A) (A) (A) (A) (A) (A) (A) (A) (A)
                 (A) (A) (A) (A) (A) (A) (A) (A) (A) (A) (A) (A)
                 (A) (A) (A) (A) (A) (A) (A) (A) (A) (A) (A) (A)
                 (A) (A) (A)
       Virtual   (A) (A) (A) (A) (A) (A) (A) (A) (A) (A) (A) (A)
                 (A) (A) (A) (A) (A) (A) (A) (A) (A) (A) (A) (A)
                 (A) (A) (A) (A) (A) (A) (A) (A) (A) (A) (A) (A)
                 (A) (A) (A) (A) (A) (A) (A) (A) (A) (A) (A) (A)
                 (A) (A) (A) (A) (A) (A) (A) (A) (A) (A) (A) (A)
                 (A) (A) (A) (A) (A) (A) (A) (A) (A) (A) (A) (A)
                 (A) (A) (A) (A) (A) (A) (A) (A) (A) (A) (A) (A)
                 (A) (A) (A) (A) (A) (A) (A) (A) (A) (A) (A) (A)
                 (A) (A) (A) (A) (A) (A) (A) (A) (A) (A) (A) (A)
                 (A) (A) (A) (A) (A) (A) (A) (A) (A) (A) (A) (A)
                 (A) (A) (A) (A) (A) (A) (A) (A) (A) (A) (A) (A)
                 (A) (A) (A) (A) (A) (A) (A) (A) (A) (A) (A) (A)
                 (A) (A) (A) (A) (A) (A) (A) (A) (A) (A) (A) (A)
                 (A) (A) (A) (A) (A) (A) (A) (A) (A) (A) (A) (A)
                 (A) (A) (A) (A) (A) (A) (A) (A) (A) (A) (A) (A)
                 (A) (A) (A) (A) (A) (A) (A) (A) (A) (A) (A) (A)
                 (A) (A) (A) (A) (A) (A) (A) (A) (A) (A) (A) (A)
                 (A) (A) (A) (A) (A) (A) (A) (A) (A) (A) (A) (A)
                 (A) (A) (A) (A) (A) (A) (A) (A) (A) (A)
 The electronic state is 1-A.
 Alpha  occ. eigenvalues --  -19.19416 -19.13500 -19.13305 -14.33352 -10.31764
 Alpha  occ. eigenvalues --  -10.22379 -10.22350 -10.22334 -10.22292 -10.21758
 Alpha  occ. eigenvalues --  -10.20317 -10.19043 -10.18992 -10.18871 -10.18801
 Alpha  occ. eigenvalues --  -10.18654 -10.18103  -1.10445  -1.02080  -1.00532
 Alpha  occ. eigenvalues --   -0.93744  -0.84517  -0.79742  -0.77392  -0.74449
 Alpha  occ. eigenvalues --   -0.73805  -0.72263  -0.66315  -0.61368  -0.61015
 Alpha  occ. eigenvalues --   -0.59072  -0.58570  -0.56658  -0.52040  -0.51112
 Alpha  occ. eigenvalues --   -0.49955  -0.49770  -0.47897  -0.47292  -0.45897
 Alpha  occ. eigenvalues --   -0.45108  -0.44196  -0.43297  -0.42353  -0.41911
 Alpha  occ. eigenvalues --   -0.41288  -0.40177  -0.39238  -0.38945  -0.37753
 Alpha  occ. eigenvalues --   -0.36820  -0.36260  -0.35397  -0.35033  -0.34619
 Alpha  occ. eigenvalues --   -0.33472  -0.31334  -0.31086  -0.27269  -0.25609
 Alpha  occ. eigenvalues --   -0.24981  -0.23701  -0.20982
 Alpha virt. eigenvalues --   -0.00815  -0.00262   0.01450   0.07701   0.08180
 Alpha virt. eigenvalues --    0.09176   0.09952   0.11349   0.12313   0.12610
 Alpha virt. eigenvalues --    0.13675   0.14623   0.14922   0.15471   0.16143
 Alpha virt. eigenvalues --    0.16538   0.17084   0.17695   0.18521   0.19412
 Alpha virt. eigenvalues --    0.20404   0.20991   0.21252   0.21779   0.23048
 Alpha virt. eigenvalues --    0.24468   0.26328   0.27168   0.28297   0.29054
 Alpha virt. eigenvalues --    0.29613   0.30910   0.31692   0.32269   0.34677
 Alpha virt. eigenvalues --    0.35715   0.37800   0.46042   0.47783   0.49997
 Alpha virt. eigenvalues --    0.51278   0.53014   0.53213   0.54472   0.54515
 Alpha virt. eigenvalues --    0.55272   0.56249   0.56607   0.56712   0.58026
 Alpha virt. eigenvalues --    0.59142   0.60255   0.60713   0.60846   0.61569
 Alpha virt. eigenvalues --    0.61746   0.62849   0.64214   0.65390   0.66050
 Alpha virt. eigenvalues --    0.67889   0.68048   0.69257   0.70857   0.72745
 Alpha virt. eigenvalues --    0.74764   0.76069   0.76503   0.78939   0.80112
 Alpha virt. eigenvalues --    0.80699   0.81858   0.82903   0.83580   0.83933
 Alpha virt. eigenvalues --    0.84329   0.84608   0.85917   0.86130   0.87079
 Alpha virt. eigenvalues --    0.87404   0.88388   0.88963   0.89685   0.90589
 Alpha virt. eigenvalues --    0.91687   0.91885   0.92628   0.93532   0.93806
 Alpha virt. eigenvalues --    0.94098   0.95823   0.96800   0.98311   0.99990
 Alpha virt. eigenvalues --    1.00508   1.02061   1.04485   1.05352   1.07236
 Alpha virt. eigenvalues --    1.08769   1.10436   1.11307   1.11467   1.13472
 Alpha virt. eigenvalues --    1.14691   1.16557   1.18172   1.20401   1.22404
 Alpha virt. eigenvalues --    1.25089   1.26958   1.29440   1.35963   1.37556
 Alpha virt. eigenvalues --    1.39659   1.40888   1.42894   1.44335   1.45683
 Alpha virt. eigenvalues --    1.46024   1.47746   1.48311   1.48757   1.50746
 Alpha virt. eigenvalues --    1.51583   1.53051   1.57164   1.61736   1.63110
 Alpha virt. eigenvalues --    1.63552   1.68137   1.70478   1.72773   1.75854
 Alpha virt. eigenvalues --    1.78516   1.79906   1.80628   1.80980   1.82976
 Alpha virt. eigenvalues --    1.83639   1.84017   1.86153   1.87385   1.89061
 Alpha virt. eigenvalues --    1.89273   1.90944   1.91670   1.93822   1.94939
 Alpha virt. eigenvalues --    1.95880   1.96415   1.98389   1.98702   2.00884
 Alpha virt. eigenvalues --    2.01890   2.03692   2.05659   2.06832   2.07242
 Alpha virt. eigenvalues --    2.08746   2.10292   2.11928   2.12959   2.14772
 Alpha virt. eigenvalues --    2.16819   2.18163   2.19584   2.22448   2.25032
 Alpha virt. eigenvalues --    2.26353   2.29234   2.29688   2.31038   2.32294
 Alpha virt. eigenvalues --    2.34106   2.35411   2.37372   2.38206   2.43200
 Alpha virt. eigenvalues --    2.47395   2.48095   2.50772   2.51309   2.52487
 Alpha virt. eigenvalues --    2.56153   2.59208   2.59290   2.60804   2.61891
 Alpha virt. eigenvalues --    2.65988   2.66690   2.68093   2.72261   2.73584
 Alpha virt. eigenvalues --    2.74461   2.74844   2.76290   2.77733   2.80808
 Alpha virt. eigenvalues --    2.84141   2.86656   2.92834   2.97636   2.99426
 Alpha virt. eigenvalues --    3.03419   3.09201   3.12838   3.42276   3.83553
 Alpha virt. eigenvalues --    4.01055   4.08835   4.11874   4.12281   4.14275
 Alpha virt. eigenvalues --    4.22013   4.23806   4.25851   4.29379   4.37085
 Alpha virt. eigenvalues --    4.43328   4.44500   4.50518   4.57919   4.65471
 Alpha virt. eigenvalues --    4.75594
          Condensed to atoms (all electrons):
               1          2          3          4          5          6
     1  C    5.258008   0.342216  -0.042320  -0.098565   0.343519  -0.061030
     2  C    0.342216   4.825748   0.263729  -0.070554  -0.056606   0.005156
     3  O   -0.042320   0.263729   8.219161   0.255642  -0.033020   0.001767
     4  C   -0.098565  -0.070554   0.255642   4.899189   0.367619  -0.036426
     5  C    0.343519  -0.056606  -0.033020   0.367619   4.904004   0.313750
     6  N   -0.061030   0.005156   0.001767  -0.036426   0.313750   7.045389
     7  C   -0.004340  -0.000037  -0.000037   0.004200  -0.041935   0.310893
     8  C   -0.000088   0.000002   0.000000  -0.000083   0.002792  -0.064895
     9  C   -0.000015   0.000000  -0.000000   0.000004   0.000048  -0.002595
    10  O   -0.000001  -0.000000  -0.000000   0.000000   0.000002   0.000063
    11  O    0.000000  -0.000000   0.000000  -0.000000  -0.000001   0.000118
    12  C   -0.007456   0.000182  -0.000027  -0.002731  -0.040286   0.254941
    13  C    0.000362  -0.000003   0.000025  -0.002432  -0.005348  -0.068587
    14  C    0.000059  -0.000001   0.000002  -0.000413  -0.000028   0.006466
    15  C    0.000001   0.000000  -0.000000   0.000016   0.000028   0.000298
    16  C   -0.000326   0.000006  -0.000000   0.000018   0.000098   0.006123
    17  C   -0.000248  -0.000051   0.000006  -0.000259  -0.002031  -0.076110
    18  H    0.368021  -0.031309   0.000490  -0.001647  -0.039295  -0.005793
    19  H    0.360546  -0.025907   0.002746   0.006945  -0.028088   0.000287
    20  H   -0.035714   0.368110  -0.047074   0.003438  -0.008173  -0.000102
    21  H   -0.032944   0.371951  -0.039011   0.003798   0.006293  -0.000112
    22  H   -0.009313   0.003550  -0.043978   0.365669  -0.035518  -0.004959
    23  H    0.009106   0.004551  -0.035728   0.358463  -0.026818   0.003414
    24  H   -0.069072   0.004734   0.000512  -0.035420   0.375378  -0.043114
    25  H    0.004265  -0.000075   0.000002  -0.000269  -0.001719  -0.043334
    26  H   -0.002014  -0.000008  -0.000002   0.000297  -0.000830  -0.040493
    27  H    0.000012  -0.000000  -0.000000   0.000000  -0.000078   0.004019
    28  H    0.000032   0.000000   0.000000  -0.000046   0.000341   0.005166
    29  H    0.000000  -0.000000  -0.000000   0.000000  -0.000000  -0.000005
    30  H    0.000179  -0.000003   0.000011   0.000185   0.000244   0.000094
    31  H   -0.000000   0.000000  -0.000000  -0.000001  -0.000001  -0.000143
    32  H    0.000000  -0.000000  -0.000000  -0.000000   0.000000   0.000005
    33  H    0.000002  -0.000000   0.000000   0.000000  -0.000002  -0.000133
    34  H    0.000323   0.000022   0.000000   0.000076   0.000027  -0.007477
               7          8          9         10         11         12
     1  C   -0.004340  -0.000088  -0.000015  -0.000001   0.000000  -0.007456
     2  C   -0.000037   0.000002   0.000000  -0.000000  -0.000000   0.000182
     3  O   -0.000037   0.000000  -0.000000  -0.000000   0.000000  -0.000027
     4  C    0.004200  -0.000083   0.000004   0.000000  -0.000000  -0.002731
     5  C   -0.041935   0.002792   0.000048   0.000002  -0.000001  -0.040286
     6  N    0.310893  -0.064895  -0.002595   0.000063   0.000118   0.254941
     7  C    4.941586   0.342185  -0.026392  -0.002199   0.001266  -0.047897
     8  C    0.342185   5.281188   0.330502  -0.081988  -0.089737   0.000744
     9  C   -0.026392   0.330502   4.324481   0.560628   0.287394   0.004291
    10  O   -0.002199  -0.081988   0.560628   8.072617  -0.092709  -0.001568
    11  O    0.001266  -0.089737   0.287394  -0.092709   8.228629  -0.000312
    12  C   -0.047897   0.000744   0.004291  -0.001568  -0.000312   4.637395
    13  C    0.002259   0.001261   0.000645  -0.000039   0.000230   0.559459
    14  C   -0.000236  -0.000011  -0.000095   0.000006  -0.000059  -0.020379
    15  C    0.000001  -0.000003  -0.000064   0.000014   0.000022  -0.036108
    16  C    0.000440   0.000015   0.000066  -0.000443   0.000019  -0.007793
    17  C   -0.004476  -0.002609   0.003891   0.001181  -0.000424   0.518815
    18  H   -0.000229  -0.000015   0.000001   0.000000   0.000000   0.005071
    19  H    0.002250   0.000005  -0.000000   0.000000  -0.000000  -0.000291
    20  H   -0.000002  -0.000000   0.000000  -0.000000   0.000000  -0.000011
    21  H    0.000000  -0.000000  -0.000000   0.000000  -0.000000   0.000017
    22  H    0.000052  -0.000002  -0.000000   0.000000   0.000000   0.008377
    23  H   -0.000099   0.000000  -0.000000  -0.000000   0.000000  -0.001104
    24  H   -0.005530   0.000412  -0.000002   0.000000   0.000000   0.005286
    25  H    0.357436  -0.052918  -0.005439   0.009701   0.000396  -0.005370
    26  H    0.367172  -0.032419   0.004337   0.000191  -0.000076   0.005050
    27  H   -0.023548   0.354145  -0.028696  -0.001406   0.001253   0.000002
    28  H   -0.034232   0.342662  -0.021692   0.002786   0.003883  -0.000289
    29  H   -0.000355   0.012009  -0.010738   0.013470   0.216167   0.000010
    30  H   -0.000124  -0.000272  -0.000009   0.000000   0.000008  -0.041890
    31  H    0.000004  -0.000000   0.000000  -0.000000  -0.000001   0.003869
    32  H   -0.000000   0.000000  -0.000000   0.000000   0.000000   0.000733
    33  H   -0.000005  -0.000001   0.000001  -0.000007   0.000000   0.003016
    34  H    0.001786   0.000091  -0.000154   0.000484   0.000004  -0.042259
              13         14         15         16         17         18
     1  C    0.000362   0.000059   0.000001  -0.000326  -0.000248   0.368021
     2  C   -0.000003  -0.000001   0.000000   0.000006  -0.000051  -0.031309
     3  O    0.000025   0.000002  -0.000000  -0.000000   0.000006   0.000490
     4  C   -0.002432  -0.000413   0.000016   0.000018  -0.000259  -0.001647
     5  C   -0.005348  -0.000028   0.000028   0.000098  -0.002031  -0.039295
     6  N   -0.068587   0.006466   0.000298   0.006123  -0.076110  -0.005793
     7  C    0.002259  -0.000236   0.000001   0.000440  -0.004476  -0.000229
     8  C    0.001261  -0.000011  -0.000003   0.000015  -0.002609  -0.000015
     9  C    0.000645  -0.000095  -0.000064   0.000066   0.003891   0.000001
    10  O   -0.000039   0.000006   0.000014  -0.000443   0.001181   0.000000
    11  O    0.000230  -0.000059   0.000022   0.000019  -0.000424   0.000000
    12  C    0.559459  -0.020379  -0.036108  -0.007793   0.518815   0.005071
    13  C    4.968561   0.504392  -0.036679  -0.040753  -0.069025   0.000035
    14  C    0.504392   4.894994   0.547699  -0.028361  -0.040126  -0.000044
    15  C   -0.036679   0.547699   4.857304   0.550414  -0.037702  -0.000021
    16  C   -0.040753  -0.028361   0.550414   4.885228   0.502085   0.000297
    17  C   -0.069025  -0.040126  -0.037702   0.502085   5.013555   0.005882
    18  H    0.000035  -0.000044  -0.000021   0.000297   0.005882   0.571502
    19  H   -0.000009  -0.000000  -0.000000   0.000006   0.000098  -0.034389
    20  H    0.000000   0.000000  -0.000000   0.000000  -0.000000   0.005706
    21  H    0.000001   0.000000  -0.000000  -0.000000   0.000008  -0.009148
    22  H    0.005494   0.000112  -0.000010  -0.000093   0.000008   0.001835
    23  H    0.000469   0.000049  -0.000001  -0.000001   0.000020   0.000033
    24  H   -0.000096  -0.000001  -0.000000   0.000006  -0.000220   0.005905
    25  H   -0.000006   0.000033   0.000002  -0.000478   0.003518   0.000118
    26  H   -0.000158   0.000001   0.000000   0.000001   0.000125   0.000005
    27  H    0.000010   0.000001  -0.000000  -0.000001   0.000030   0.000000
    28  H    0.000491   0.000058   0.000003  -0.000017   0.000246   0.000000
    29  H   -0.000035   0.000032   0.000035   0.000046  -0.000024   0.000000
    30  H    0.346183  -0.043604   0.005239   0.000105   0.007448  -0.000007
    31  H   -0.036009   0.354929  -0.044123   0.004728   0.000587  -0.000000
    32  H    0.004553  -0.043601   0.358901  -0.043154   0.004940   0.000000
    33  H    0.000774   0.004565  -0.043435   0.355316  -0.035239  -0.000013
    34  H    0.005670   0.000379   0.004889  -0.041829   0.353749   0.000821
              19         20         21         22         23         24
     1  C    0.360546  -0.035714  -0.032944  -0.009313   0.009106  -0.069072
     2  C   -0.025907   0.368110   0.371951   0.003550   0.004551   0.004734
     3  O    0.002746  -0.047074  -0.039011  -0.043978  -0.035728   0.000512
     4  C    0.006945   0.003438   0.003798   0.365669   0.358463  -0.035420
     5  C   -0.028088  -0.008173   0.006293  -0.035518  -0.026818   0.375378
     6  N    0.000287  -0.000102  -0.000112  -0.004959   0.003414  -0.043114
     7  C    0.002250  -0.000002   0.000000   0.000052  -0.000099  -0.005530
     8  C    0.000005  -0.000000  -0.000000  -0.000002   0.000000   0.000412
     9  C   -0.000000   0.000000  -0.000000  -0.000000  -0.000000  -0.000002
    10  O    0.000000  -0.000000   0.000000   0.000000  -0.000000   0.000000
    11  O   -0.000000   0.000000  -0.000000   0.000000   0.000000   0.000000
    12  C   -0.000291  -0.000011   0.000017   0.008377  -0.001104   0.005286
    13  C   -0.000009   0.000000   0.000001   0.005494   0.000469  -0.000096
    14  C   -0.000000   0.000000   0.000000   0.000112   0.000049  -0.000001
    15  C   -0.000000  -0.000000  -0.000000  -0.000010  -0.000001  -0.000000
    16  C    0.000006   0.000000  -0.000000  -0.000093  -0.000001   0.000006
    17  C    0.000098  -0.000000   0.000008   0.000008   0.000020  -0.000220
    18  H   -0.034389   0.005706  -0.009148   0.001835   0.000033   0.005905
    19  H    0.581827  -0.004688   0.002395  -0.000186  -0.000159  -0.006731
    20  H   -0.004688   0.644288  -0.054928  -0.000655   0.000537   0.002058
    21  H    0.002395  -0.054928   0.613498   0.000869  -0.000356  -0.000095
    22  H   -0.000186  -0.000655   0.000869   0.607900  -0.051130   0.005928
    23  H   -0.000159   0.000537  -0.000356  -0.051130   0.606735  -0.009568
    24  H   -0.006731   0.002058  -0.000095   0.005928  -0.009568   0.622155
    25  H   -0.000079  -0.000000   0.000003  -0.000001   0.000008  -0.000756
    26  H    0.000491  -0.000003   0.000000   0.000005  -0.000040   0.007305
    27  H   -0.000001   0.000000   0.000000  -0.000000   0.000000  -0.000062
    28  H   -0.000001  -0.000000   0.000000  -0.000000   0.000009  -0.000027
    29  H    0.000000   0.000000   0.000000  -0.000000   0.000000  -0.000000
    30  H   -0.000000   0.000000   0.000000  -0.000423   0.000714  -0.000134
    31  H    0.000000  -0.000000  -0.000000  -0.000008  -0.000001  -0.000000
    32  H   -0.000000   0.000000   0.000000   0.000000  -0.000000   0.000000
    33  H   -0.000000  -0.000000   0.000000  -0.000001   0.000000  -0.000000
    34  H    0.000130   0.000000  -0.000001  -0.000012  -0.000001  -0.000038
              25         26         27         28         29         30
     1  C    0.004265  -0.002014   0.000012   0.000032   0.000000   0.000179
     2  C   -0.000075  -0.000008  -0.000000   0.000000  -0.000000  -0.000003
     3  O    0.000002  -0.000002  -0.000000   0.000000  -0.000000   0.000011
     4  C   -0.000269   0.000297   0.000000  -0.000046   0.000000   0.000185
     5  C   -0.001719  -0.000830  -0.000078   0.000341  -0.000000   0.000244
     6  N   -0.043334  -0.040493   0.004019   0.005166  -0.000005   0.000094
     7  C    0.357436   0.367172  -0.023548  -0.034232  -0.000355  -0.000124
     8  C   -0.052918  -0.032419   0.354145   0.342662   0.012009  -0.000272
     9  C   -0.005439   0.004337  -0.028696  -0.021692  -0.010738  -0.000009
    10  O    0.009701   0.000191  -0.001406   0.002786   0.013470   0.000000
    11  O    0.000396  -0.000076   0.001253   0.003883   0.216167   0.000008
    12  C   -0.005370   0.005050   0.000002  -0.000289   0.000010  -0.041890
    13  C   -0.000006  -0.000158   0.000010   0.000491  -0.000035   0.346183
    14  C    0.000033   0.000001   0.000001   0.000058   0.000032  -0.043604
    15  C    0.000002   0.000000  -0.000000   0.000003   0.000035   0.005239
    16  C   -0.000478   0.000001  -0.000001  -0.000017   0.000046   0.000105
    17  C    0.003518   0.000125   0.000030   0.000246  -0.000024   0.007448
    18  H    0.000118   0.000005   0.000000   0.000000   0.000000  -0.000007
    19  H   -0.000079   0.000491  -0.000001  -0.000001   0.000000  -0.000000
    20  H   -0.000000  -0.000003   0.000000  -0.000000   0.000000   0.000000
    21  H    0.000003   0.000000   0.000000   0.000000   0.000000   0.000000
    22  H   -0.000001   0.000005  -0.000000  -0.000000  -0.000000  -0.000423
    23  H    0.000008  -0.000040   0.000000   0.000009   0.000000   0.000714
    24  H   -0.000756   0.007305  -0.000062  -0.000027  -0.000000  -0.000134
    25  H    0.598945  -0.040992   0.003579   0.005067  -0.000037   0.000050
    26  H   -0.040992   0.600697  -0.008305  -0.000682   0.000007  -0.000023
    27  H    0.003579  -0.008305   0.541923  -0.023372  -0.000351   0.000004
    28  H    0.005067  -0.000682  -0.023372   0.534916  -0.000404   0.000663
    29  H   -0.000037   0.000007  -0.000351  -0.000404   0.362712   0.000001
    30  H    0.000050  -0.000023   0.000004   0.000663   0.000001   0.602524
    31  H   -0.000000  -0.000000  -0.000000  -0.000003  -0.000001  -0.006397
    32  H    0.000000   0.000000   0.000000   0.000000  -0.000000  -0.000175
    33  H    0.000022  -0.000000   0.000000   0.000000   0.000001   0.000018
    34  H    0.003026  -0.000115   0.000003  -0.000008  -0.000003  -0.000169
              31         32         33         34
     1  C   -0.000000   0.000000   0.000002   0.000323
     2  C    0.000000  -0.000000  -0.000000   0.000022
     3  O   -0.000000  -0.000000   0.000000   0.000000
     4  C   -0.000001  -0.000000   0.000000   0.000076
     5  C   -0.000001   0.000000  -0.000002   0.000027
     6  N   -0.000143   0.000005  -0.000133  -0.007477
     7  C    0.000004  -0.000000  -0.000005   0.001786
     8  C   -0.000000   0.000000  -0.000001   0.000091
     9  C    0.000000  -0.000000   0.000001  -0.000154
    10  O   -0.000000   0.000000  -0.000007   0.000484
    11  O   -0.000001   0.000000   0.000000   0.000004
    12  C    0.003869   0.000733   0.003016  -0.042259
    13  C   -0.036009   0.004553   0.000774   0.005670
    14  C    0.354929  -0.043601   0.004565   0.000379
    15  C   -0.044123   0.358901  -0.043435   0.004889
    16  C    0.004728  -0.043154   0.355316  -0.041829
    17  C    0.000587   0.004940  -0.035239   0.353749
    18  H   -0.000000   0.000000  -0.000013   0.000821
    19  H    0.000000  -0.000000  -0.000000   0.000130
    20  H   -0.000000   0.000000  -0.000000   0.000000
    21  H   -0.000000   0.000000   0.000000  -0.000001
    22  H   -0.000008   0.000000  -0.000001  -0.000012
    23  H   -0.000001  -0.000000   0.000000  -0.000001
    24  H   -0.000000   0.000000  -0.000000  -0.000038
    25  H   -0.000000   0.000000   0.000022   0.003026
    26  H   -0.000000   0.000000  -0.000000  -0.000115
    27  H   -0.000000   0.000000   0.000000   0.000003
    28  H   -0.000003   0.000000   0.000000  -0.000008
    29  H   -0.000001  -0.000000   0.000001  -0.000003
    30  H   -0.006397  -0.000175   0.000018  -0.000169
    31  H    0.597099  -0.005632  -0.000203   0.000016
    32  H   -0.005632   0.600608  -0.005494  -0.000183
    33  H   -0.000203  -0.005494   0.592966  -0.005734
    34  H    0.000016  -0.000183  -0.005734   0.589048
 Mulliken charges:
               1
     1  C   -0.323206
     2  C   -0.005403
     3  O   -0.502896
     4  C   -0.016712
     5  C    0.005635
     6  N   -0.502642
     7  C   -0.139857
     8  C   -0.342972
     9  C    0.579604
    10  O   -0.480785
    11  O   -0.556071
    12  C    0.248514
    13  C   -0.141696
    14  C   -0.136820
    15  C   -0.126720
    16  C   -0.141766
    17  C   -0.147646
    18  H    0.156188
    19  H    0.142802
    20  H    0.127212
    21  H    0.137763
    22  H    0.146489
    23  H    0.140897
    24  H    0.141185
    25  H    0.165302
    26  H    0.140475
    27  H    0.180842
    28  H    0.184448
    29  H    0.407461
    30  H    0.129563
    31  H    0.131293
    32  H    0.128500
    33  H    0.133585
    34  H    0.137435
 Sum of Mulliken charges =  -0.00000
 Mulliken charges with hydrogens summed into heavy atoms:
               1
     1  C   -0.024216
     2  C    0.259571
     3  O   -0.502896
     4  C    0.270674
     5  C    0.146821
     6  N   -0.502642
     7  C    0.165919
     8  C    0.022318
     9  C    0.579604
    10  O   -0.480785
    11  O   -0.148610
    12  C    0.248514
    13  C   -0.012133
    14  C   -0.005527
    15  C    0.001780
    16  C   -0.008181
    17  C   -0.010211
 Electronic spatial extent (au):  <R**2>=           4195.8026
 Charge=             -0.0000 electrons
 Dipole moment (field-independent basis, Debye):
    X=              1.0237    Y=             -0.5520    Z=             -0.0985  Tot=              1.1673
 Quadrupole moment (field-independent basis, Debye-Ang):
   XX=           -108.7542   YY=            -91.9996   ZZ=            -99.2038
   XY=              7.9297   XZ=             -7.0961   YZ=              2.0676
 Traceless Quadrupole moment (field-independent basis, Debye-Ang):
   XX=             -8.7683   YY=              7.9862   ZZ=              0.7821
   XY=              7.9297   XZ=             -7.0961   YZ=              2.0676
 Octapole moment (field-independent basis, Debye-Ang**2):
  XXX=             83.7772  YYY=            -13.5439  ZZZ=             -3.8874  XYY=             13.3383
  XXY=             -2.0062  XXZ=             10.0876  XZZ=            -12.4854  YZZ=              7.8299
  YYZ=             -7.2802  XYZ=              9.2359
 Hexadecapole moment (field-independent basis, Debye-Ang**3):
 XXXX=          -3277.3508 YYYY=          -1471.4844 ZZZZ=           -598.8530 XXXY=             63.6031
 XXXZ=           -119.0736 YYYX=              6.5278 YYYZ=              3.9103 ZZZX=             10.8127
 ZZZY=              2.0599 XXYY=           -781.7844 XXZZ=           -676.4159 YYZZ=           -354.8789
 XXYZ=             24.1422 YYXZ=             -8.9127 ZZXY=             16.2069
 N-N= 1.255259878988D+03 E-N=-4.341031579374D+03  KE= 7.789397315525D+02
 Calling FoFJK, ICntrl=      2127 FMM=F ISym2X=0 I1Cent= 0 IOpClX= 0 NMat=1 NMatS=1 NMatT=0.
 ***** Axes restored to original set *****
 -------------------------------------------------------------------
 Center     Atomic                   Forces (Hartrees/Bohr)
 Number     Number              X              Y              Z
 -------------------------------------------------------------------
      1        6          -0.003603801   -0.014398475   -0.000746071
      2        6           0.006121095   -0.006118696    0.005531480
      3        8          -0.008274540    0.008392226    0.000047587
      4        6           0.012120543   -0.004223351   -0.005060184
      5        6          -0.012491333    0.009354395   -0.001134111
      6        7           0.006179967    0.003773796    0.029350813
      7        6           0.017851792   -0.009574467    0.009061170
      8        6          -0.001356709    0.000434255   -0.004260535
      9        6          -0.019203244    0.000173764   -0.007587354
     10        8           0.011876172    0.000122522    0.005090112
     11        8           0.002407114    0.001765788   -0.006447747
     12        6          -0.000766203    0.002763124   -0.020669567
     13        6           0.003094036    0.003677071   -0.005261863
     14        6           0.001994336   -0.000369771    0.004248215
     15        6          -0.000898050   -0.000358522   -0.004228530
     16        6          -0.000498204    0.000240003    0.003915826
     17        6          -0.004592805   -0.005116676   -0.003807537
     18        1          -0.001452038    0.004646168   -0.001627356
     19        1          -0.000510684    0.000295335    0.000774425
     20        1          -0.001004302   -0.002805649    0.003080576
     21        1           0.002124044   -0.001541239   -0.000208838
     22        1          -0.005009766    0.005412317   -0.002822663
     23        1           0.001044439   -0.000373632    0.000643613
     24        1          -0.002849629    0.002981510   -0.001888501
     25        1          -0.005373830    0.004743371   -0.001201278
     26        1           0.004542810   -0.002961486   -0.002861213
     27        1          -0.000955783   -0.001417106    0.000676183
     28        1          -0.001043766   -0.003428286    0.000561439
     29        1           0.001405244    0.003333714    0.001868948
     30        1          -0.001620399   -0.001537360    0.002286405
     31        1           0.000046875    0.000165661    0.000431643
     32        1          -0.000162847    0.000115159   -0.000046687
     33        1           0.000108135    0.000046662    0.000685681
     34        1           0.000751331    0.001787873    0.001605918
 -------------------------------------------------------------------
 Cartesian Forces:  Max     0.029350813 RMS     0.006146436

 GradGradGradGradGradGradGradGradGradGradGradGradGradGradGradGradGradGrad
 Berny optimization.
 FormGI is forming the generalized inverse of G from B-inverse, IUseBI=4.
 Internal  Forces:  Max     0.020982491 RMS     0.003530285
 Search for a local minimum.
 Step number   1 out of a maximum of  197
 All quantities printed in internal units (Hartrees-Bohrs-Radians)
 Mixed Optimization -- RFO/linear search
 Second derivative matrix not updated -- first step.
 ITU=  0
     Eigenvalues ---    0.00414   0.00613   0.00633   0.00738   0.00782
     Eigenvalues ---    0.00844   0.01158   0.01684   0.01749   0.01952
     Eigenvalues ---    0.02077   0.02094   0.02098   0.02125   0.02153
     Eigenvalues ---    0.02163   0.02180   0.02198   0.02392   0.02818
     Eigenvalues ---    0.03292   0.04000   0.04270   0.04469   0.04810
     Eigenvalues ---    0.05219   0.05430   0.05573   0.05582   0.05664
     Eigenvalues ---    0.06022   0.06600   0.06734   0.07981   0.09267
     Eigenvalues ---    0.09329   0.10700   0.11309   0.11331   0.11658
     Eigenvalues ---    0.12740   0.12846   0.13910   0.15999   0.16000
     Eigenvalues ---    0.16000   0.16000   0.16000   0.16000   0.20301
     Eigenvalues ---    0.20368   0.21400   0.21565   0.21890   0.21943
     Eigenvalues ---    0.22000   0.22000   0.23467   0.24972   0.24992
     Eigenvalues ---    0.25000   0.28280   0.29696   0.29739   0.29835
     Eigenvalues ---    0.32507   0.33699   0.33929   0.34106   0.34122
     Eigenvalues ---    0.34135   0.34209   0.34271   0.34342   0.34387
     Eigenvalues ---    0.34390   0.34394   0.34437   0.34565   0.35116
     Eigenvalues ---    0.35186   0.35216   0.35227   0.35234   0.37575
     Eigenvalues ---    0.38697   0.41673   0.42066   0.45515   0.45518
     Eigenvalues ---    0.46024   0.46328   0.46867   0.51503   0.55644
     Eigenvalues ---    0.94922
 RFO step:  Lambda=-1.17353378D-02 EMin= 4.14001107D-03
 Linear search not attempted -- first point.
 Iteration  1 RMS(Cart)=  0.10218499 RMS(Int)=  0.00229201
 Iteration  2 RMS(Cart)=  0.00471142 RMS(Int)=  0.00042272
 Iteration  3 RMS(Cart)=  0.00001171 RMS(Int)=  0.00042266
 Iteration  4 RMS(Cart)=  0.00000002 RMS(Int)=  0.00042266
 Variable       Old X    -DE/DX   Delta X   Delta X   Delta X     New X
                                 (Linear)    (Quad)   (Total)
    R1        2.86576   0.00735   0.00000   0.02433   0.02442   2.89018
    R2        2.86000   0.01346   0.00000   0.04309   0.04285   2.90285
    R3        2.06876   0.00078   0.00000   0.00220   0.00220   2.07096
    R4        2.06682   0.00079   0.00000   0.00221   0.00221   2.06903
    R5        2.71442   0.00258   0.00000   0.00643   0.00662   2.72103
    R6        2.06978   0.00333   0.00000   0.00940   0.00940   2.07918
    R7        2.06677   0.00160   0.00000   0.00451   0.00451   2.07128
    R8        2.72666  -0.00325   0.00000  -0.00913  -0.00907   2.71759
    R9        2.88152   0.00319   0.00000   0.00879   0.00870   2.89022
   R10        2.06598   0.00275   0.00000   0.00771   0.00771   2.07369
   R11        2.06757   0.00057   0.00000   0.00160   0.00160   2.06917
   R12        2.79688  -0.01096   0.00000  -0.03066  -0.03066   2.76622
   R13        2.07840  -0.00149   0.00000  -0.00428  -0.00428   2.07412
   R14        2.79970  -0.01232   0.00000  -0.03464  -0.03464   2.76506
   R15        2.64679   0.02098   0.00000   0.04494   0.04494   2.69172
   R16        2.88487   0.00395   0.00000   0.01277   0.01277   2.89764
   R17        2.07125   0.00099   0.00000   0.00280   0.00280   2.07405
   R18        2.07450  -0.00141   0.00000  -0.00401  -0.00401   2.07049
   R19        2.83225   0.00821   0.00000   0.02438   0.02438   2.85664
   R20        2.07151   0.00062   0.00000   0.00176   0.00176   2.07327
   R21        2.07102  -0.00299   0.00000  -0.00847  -0.00847   2.06255
   R22        2.30744  -0.01039   0.00000  -0.01081  -0.01081   2.29663
   R23        2.54564   0.00734   0.00000   0.01291   0.01291   2.55855
   R24        1.85079  -0.00248   0.00000  -0.00470  -0.00470   1.84609
   R25        2.64942   0.00074   0.00000   0.00144   0.00143   2.65086
   R26        2.64737   0.00238   0.00000   0.00497   0.00498   2.65235
   R27        2.64020  -0.00249   0.00000  -0.00531  -0.00531   2.63489
   R28        2.05487  -0.00097   0.00000  -0.00267  -0.00267   2.05221
   R29        2.62977   0.00395   0.00000   0.00833   0.00832   2.63809
   R30        2.05308  -0.00010   0.00000  -0.00029  -0.00029   2.05279
   R31        2.63020   0.00312   0.00000   0.00663   0.00663   2.63683
   R32        2.05326   0.00006   0.00000   0.00018   0.00018   2.05344
   R33        2.64195  -0.00255   0.00000  -0.00539  -0.00539   2.63657
   R34        2.05374  -0.00041   0.00000  -0.00113  -0.00113   2.05261
   R35        2.05297  -0.00070   0.00000  -0.00192  -0.00192   2.05105
    A1        1.77036  -0.00055   0.00000  -0.00100  -0.00115   1.76920
    A2        1.90265   0.00271   0.00000   0.02837   0.02838   1.93103
    A3        1.96660   0.00007   0.00000   0.00400   0.00398   1.97057
    A4        1.95323  -0.00315   0.00000  -0.03612  -0.03608   1.91715
    A5        1.98651   0.00067   0.00000   0.00074   0.00083   1.98734
    A6        1.88288   0.00028   0.00000   0.00457   0.00409   1.88697
    A7        1.87541  -0.00697   0.00000  -0.02645  -0.02629   1.84912
    A8        1.93950   0.00161   0.00000   0.00682   0.00697   1.94647
    A9        1.96303   0.00290   0.00000   0.01452   0.01423   1.97725
   A10        1.87836   0.00404   0.00000   0.02549   0.02548   1.90384
   A11        1.91249   0.00042   0.00000  -0.01112  -0.01105   1.90144
   A12        1.89316  -0.00191   0.00000  -0.00881  -0.00883   1.88433
   A13        1.88429   0.01019   0.00000   0.03763   0.03774   1.92203
   A14        1.84969  -0.00364   0.00000  -0.01614  -0.01628   1.83341
   A15        1.86117   0.00670   0.00000   0.05804   0.05804   1.91921
   A16        1.90964  -0.00033   0.00000  -0.00805  -0.00801   1.90163
   A17        1.98417  -0.00432   0.00000  -0.03579  -0.03558   1.94858
   A18        1.96232   0.00147   0.00000   0.00435   0.00416   1.96648
   A19        1.89287   0.00046   0.00000   0.00095   0.00058   1.89345
   A20        1.76508  -0.00038   0.00000  -0.00041  -0.00033   1.76475
   A21        2.02475   0.00653   0.00000   0.04077   0.04105   2.06580
   A22        1.88026  -0.00111   0.00000   0.00985   0.00984   1.89010
   A23        2.04605  -0.00596   0.00000  -0.04038  -0.04033   2.00572
   A24        1.85755   0.00291   0.00000   0.01740   0.01694   1.87449
   A25        1.87798  -0.00181   0.00000  -0.02352  -0.02401   1.85398
   A26        2.01001  -0.00265   0.00000  -0.01702  -0.01713   1.99288
   A27        2.04334   0.00212   0.00000   0.00363   0.00336   2.04670
   A28        2.01656  -0.00013   0.00000  -0.00691  -0.00706   2.00950
   A29        1.94980  -0.00342   0.00000  -0.02100  -0.02206   1.92774
   A30        1.95201   0.00571   0.00000   0.01662   0.01413   1.96614
   A31        1.88436  -0.00299   0.00000  -0.00791  -0.00796   1.87640
   A32        1.97008  -0.00736   0.00000  -0.07151  -0.07161   1.89847
   A33        1.85596   0.00798   0.00000   0.07115   0.07194   1.92790
   A34        1.84366   0.00063   0.00000   0.02130   0.02267   1.86633
   A35        1.94438   0.00410   0.00000   0.01735   0.01738   1.96176
   A36        1.92216  -0.00193   0.00000  -0.00995  -0.01011   1.91205
   A37        1.93736  -0.00243   0.00000  -0.01891  -0.01893   1.91843
   A38        1.85631  -0.00014   0.00000   0.00891   0.00893   1.86524
   A39        1.92438  -0.00107   0.00000  -0.00510  -0.00500   1.91938
   A40        1.87635   0.00147   0.00000   0.00853   0.00841   1.88477
   A41        2.20679  -0.00740   0.00000  -0.02666  -0.02818   2.17860
   A42        1.96935  -0.00046   0.00000  -0.00002  -0.00158   1.96777
   A43        2.10529   0.00799   0.00000   0.03239   0.03080   2.13609
   A44        1.81709   0.00492   0.00000   0.02865   0.02865   1.84574
   A45        2.07222   0.00038   0.00000   0.00163   0.00163   2.07384
   A46        2.15383  -0.00244   0.00000  -0.00914  -0.00914   2.14469
   A47        2.05688   0.00206   0.00000   0.00746   0.00747   2.06435
   A48        2.11685  -0.00089   0.00000  -0.00405  -0.00407   2.11278
   A49        2.08568  -0.00268   0.00000  -0.01615  -0.01615   2.06953
   A50        2.08058   0.00357   0.00000   0.02027   0.02027   2.10086
   A51        2.09356   0.00030   0.00000   0.00166   0.00162   2.09517
   A52        2.09210  -0.00060   0.00000  -0.00344  -0.00346   2.08865
   A53        2.09752   0.00030   0.00000   0.00174   0.00173   2.09925
   A54        2.08902  -0.00072   0.00000  -0.00235  -0.00237   2.08666
   A55        2.09737   0.00041   0.00000   0.00143   0.00143   2.09881
   A56        2.09679   0.00032   0.00000   0.00091   0.00091   2.09770
   A57        2.09624   0.00055   0.00000   0.00290   0.00291   2.09915
   A58        2.09643   0.00030   0.00000   0.00191   0.00190   2.09833
   A59        2.09051  -0.00085   0.00000  -0.00480  -0.00481   2.08570
   A60        2.11376  -0.00130   0.00000  -0.00564  -0.00570   2.10806
   A61        2.10467  -0.00162   0.00000  -0.01036  -0.01044   2.09423
   A62        2.06475   0.00292   0.00000   0.01608   0.01599   2.08074
    D1       -0.52874  -0.00029   0.00000  -0.00105  -0.00092  -0.52966
    D2        1.52195   0.00131   0.00000   0.01767   0.01778   1.53973
    D3       -2.63493   0.00207   0.00000   0.02155   0.02171  -2.61322
    D4        1.53406  -0.00301   0.00000  -0.03083  -0.03093   1.50313
    D5       -2.69843  -0.00141   0.00000  -0.01210  -0.01223  -2.71066
    D6       -0.57212  -0.00065   0.00000  -0.00823  -0.00830  -0.58042
    D7       -2.65938  -0.00077   0.00000  -0.00331  -0.00319  -2.66257
    D8       -0.60869   0.00083   0.00000   0.01541   0.01551  -0.59318
    D9        1.51762   0.00159   0.00000   0.01929   0.01944   1.53705
   D10        0.67586   0.00228   0.00000   0.01068   0.01058   0.68643
   D11        2.90892  -0.00153   0.00000  -0.01558  -0.01567   2.89325
   D12       -1.26917  -0.00040   0.00000  -0.01165  -0.01141  -1.28058
   D13       -1.35012   0.00077   0.00000  -0.00637  -0.00640  -1.35651
   D14        0.88294  -0.00304   0.00000  -0.03263  -0.03264   0.85030
   D15        2.98804  -0.00191   0.00000  -0.02870  -0.02838   2.95966
   D16        2.79264   0.00234   0.00000   0.01523   0.01505   2.80768
   D17       -1.25749  -0.00146   0.00000  -0.01103  -0.01120  -1.26869
   D18        0.84761  -0.00033   0.00000  -0.00710  -0.00694   0.84067
   D19        0.14804   0.00103   0.00000   0.00187   0.00188   0.14992
   D20       -1.94205   0.00073   0.00000  -0.00562  -0.00545  -1.94749
   D21        2.28583   0.00048   0.00000  -0.00353  -0.00319   2.28264
   D22        0.29618   0.00039   0.00000   0.00342   0.00340   0.29958
   D23       -1.82343   0.00386   0.00000   0.02352   0.02396  -1.79947
   D24        2.41592  -0.00018   0.00000  -0.00531  -0.00531   2.41062
   D25       -0.61599   0.00009   0.00000  -0.00179  -0.00168  -0.61767
   D26       -2.83515  -0.00425   0.00000  -0.02845  -0.02853  -2.86368
   D27        1.34636  -0.00031   0.00000   0.01465   0.01480   1.36115
   D28        1.42249   0.00360   0.00000   0.03930   0.03932   1.46181
   D29       -0.79667  -0.00075   0.00000   0.01264   0.01247  -0.78420
   D30       -2.89834   0.00320   0.00000   0.05574   0.05580  -2.84254
   D31       -2.70150   0.00198   0.00000   0.01584   0.01599  -2.68550
   D32        1.36252  -0.00236   0.00000  -0.01082  -0.01085   1.35167
   D33       -0.73915   0.00159   0.00000   0.03228   0.03247  -0.70668
   D34        1.28707   0.00008   0.00000  -0.00292  -0.00277   1.28430
   D35       -1.17068   0.00108   0.00000   0.02792   0.02807  -1.14261
   D36       -2.91014   0.00013   0.00000  -0.00253  -0.00320  -2.91334
   D37        0.91529   0.00112   0.00000   0.02831   0.02765   0.94293
   D38       -0.81925  -0.00141   0.00000  -0.02472  -0.02421  -0.84346
   D39        3.00618  -0.00042   0.00000   0.00612   0.00664   3.01282
   D40        2.58049   0.00589   0.00000   0.13578   0.13592   2.71642
   D41       -1.47527  -0.00219   0.00000   0.03574   0.03533  -1.43993
   D42        0.54577  -0.00007   0.00000   0.06599   0.06600   0.61177
   D43       -1.23426   0.00583   0.00000   0.10972   0.11004  -1.12422
   D44        0.99316  -0.00225   0.00000   0.00968   0.00945   1.00262
   D45        3.01420  -0.00013   0.00000   0.03993   0.04011   3.05432
   D46       -1.61275   0.00012   0.00000   0.02082   0.02077  -1.59198
   D47        1.55353   0.00016   0.00000   0.02305   0.02297   1.57651
   D48        2.21522   0.00209   0.00000   0.05567   0.05575   2.27096
   D49       -0.90169   0.00213   0.00000   0.05790   0.05795  -0.84374
   D50        1.58948  -0.00145   0.00000  -0.08607  -0.08534   1.50414
   D51       -2.63827  -0.00031   0.00000  -0.07059  -0.06991  -2.70818
   D52       -0.56234  -0.00125   0.00000  -0.07829  -0.07750  -0.63983
   D53       -0.62821  -0.00035   0.00000  -0.03276  -0.03392  -0.66212
[...]
   310    C   15  S      Val( 2S)     0.47453      -0.07716
   311    C   15  S      Ryd( 3S)     0.00086       2.22706
   312    C   15  S      Ryd( 4S)     0.00095       3.67749
   313    C   15  S      Ryd( 5S)     0.00004      11.75853
   314    C   15  px     Val( 2p)     0.52050       0.00206
   315    C   15  px     Ryd( 3p)     0.00138       0.91367
   316    C   15  px     Ryd( 4p)     0.00017       1.38348
   317    C   15  px     Ryd( 5p)     0.00001       2.63300
   318    C   15  py     Val( 2p)     0.56532       0.03658
   319    C   15  py     Ryd( 3p)     0.00227       2.11463
   320    C   15  py     Ryd( 4p)     0.00057       2.53929
   321    C   15  py     Ryd( 5p)     0.00002       2.79129
   322    C   15  pz     Val( 2p)     0.53048       0.04940
   323    C   15  pz     Ryd( 3p)     0.00153       2.52339
   324    C   15  pz     Ryd( 4p)     0.00104       2.87000
   325    C   15  pz     Ryd( 5p)     0.00003       2.87415
   326    C   15  dxy    Ryd( 3d)     0.00029       2.05877
   327    C   15  dxz    Ryd( 3d)     0.00030       2.12783
   328    C   15  dyz    Ryd( 3d)     0.00038       2.70460
   329    C   15  dx2y2  Ryd( 3d)     0.00025       1.99272
   330    C   15  dz2    Ryd( 3d)     0.00032       2.57576
 
   331    C   16  S      Cor( 1S)     0.99956      -9.93728
   332    C   16  S      Val( 2S)     0.47347      -0.07695
   333    C   16  S      Ryd( 4S)     0.00099       3.81589
   334    C   16  S      Ryd( 3S)     0.00095       2.36684
   335    C   16  S      Ryd( 5S)     0.00003       9.75308
   336    C   16  px     Val( 2p)     0.51223       0.00299
   337    C   16  px     Ryd( 3p)     0.00138       0.96696
   338    C   16  px     Ryd( 4p)     0.00016       1.17267
   339    C   16  px     Ryd( 5p)     0.00004       2.40340
   340    C   16  py     Val( 2p)     0.52614       0.04081
   341    C   16  py     Ryd( 3p)     0.00203       1.94655
   342    C   16  py     Ryd( 5p)     0.00028       2.58625
   343    C   16  py     Ryd( 4p)     0.00004       1.99160
   344    C   16  pz     Val( 2p)     0.57680       0.04078
   345    C   16  pz     Ryd( 3p)     0.00303       2.27685
   346    C   16  pz     Ryd( 5p)     0.00035       3.55250
   347    C   16  pz     Ryd( 4p)     0.00001       2.69665
   348    C   16  dxy    Ryd( 3d)     0.00025       2.23157
   349    C   16  dxz    Ryd( 3d)     0.00026       2.00160
   350    C   16  dyz    Ryd( 3d)     0.00027       2.71293
   351    C   16  dx2y2  Ryd( 3d)     0.00026       2.04752
   352    C   16  dz2    Ryd( 3d)     0.00035       2.49634
 
   353    C   17  S      Cor( 1S)     0.99949      -9.93087
   354    C   17  S      Val( 2S)     0.47394      -0.07150
   355    C   17  S      Ryd( 4S)     0.00104       6.03766
   356    C   17  S      Ryd( 3S)     0.00069       1.59238
   357    C   17  S      Ryd( 5S)     0.00015      10.15310
   358    C   17  px     Val( 2p)     0.51086       0.00047
   359    C   17  px     Ryd( 3p)     0.00103       0.96609
   360    C   17  px     Ryd( 4p)     0.00045       2.09338
   361    C   17  px     Ryd( 5p)     0.00003       2.82726
   362    C   17  py     Val( 2p)     0.55598       0.03132
   363    C   17  py     Ryd( 3p)     0.00189       1.51801
   364    C   17  py     Ryd( 5p)     0.00019       3.80284
   365    C   17  py     Ryd( 4p)     0.00002       2.73789
   366    C   17  pz     Val( 2p)     0.56229       0.03917
   367    C   17  pz     Ryd( 3p)     0.00246       1.38364
   368    C   17  pz     Ryd( 5p)     0.00027       4.12454
   369    C   17  pz     Ryd( 4p)     0.00003       2.86179
   370    C   17  dxy    Ryd( 3d)     0.00024       2.28069
   371    C   17  dxz    Ryd( 3d)     0.00027       2.06099
   372    C   17  dyz    Ryd( 3d)     0.00043       2.47394
   373    C   17  dx2y2  Ryd( 3d)     0.00029       2.07783
   374    C   17  dz2    Ryd( 3d)     0.00035       2.65217
 
   375    H   18  S      Val( 1S)     0.39558       0.13526
   376    H   18  S      Ryd( 2S)     0.00088       0.63724
   377    H   18  S      Ryd( 4S)     0.00044       1.94472
   378    H   18  S      Ryd( 3S)     0.00001       0.82093
   379    H   18  px     Ryd( 2p)     0.00010       2.21139
   380    H   18  py     Ryd( 2p)     0.00010       2.41364
   381    H   18  pz     Ryd( 2p)     0.00010       2.24490
 
   382    H   19  S      Val( 1S)     0.39283       0.13307
   383    H   19  S      Ryd( 2S)     0.00065       0.43798
   384    H   19  S      Ryd( 4S)     0.00028       1.70691
   385    H   19  S      Ryd( 3S)     0.00003       1.05548
   386    H   19  px     Ryd( 2p)     0.00008       1.97411
   387    H   19  py     Ryd( 2p)     0.00012       2.54135
   388    H   19  pz     Ryd( 2p)     0.00010       2.18212
 
   389    H   20  S      Val( 1S)     0.41384       0.11252
   390    H   20  S      Ryd( 2S)     0.00045       0.37381
   391    H   20  S      Ryd( 3S)     0.00065       0.74684
   392    H   20  S      Ryd( 4S)     0.00009       2.04021
   393    H   20  px     Ryd( 2p)     0.00017       2.32116
   394    H   20  py     Ryd( 2p)     0.00015       2.40456
   395    H   20  pz     Ryd( 2p)     0.00006       1.91962
 
   396    H   21  S      Val( 1S)     0.41797       0.10925
   397    H   21  S      Ryd( 2S)     0.00022       0.39791
   398    H   21  S      Ryd( 3S)     0.00072       0.71626
   399    H   21  S      Ryd( 4S)     0.00008       2.13076
   400    H   21  px     Ryd( 2p)     0.00013       1.99607
   401    H   21  py     Ryd( 2p)     0.00017       2.37998
   402    H   21  pz     Ryd( 2p)     0.00009       2.27884
 
   403    H   22  S      Val( 1S)     0.41486       0.11753
   404    H   22  S      Ryd( 2S)     0.00083       0.59626
   405    H   22  S      Ryd( 4S)     0.00035       1.86825
   406    H   22  S      Ryd( 3S)     0.00006       0.94782
   407    H   22  px     Ryd( 2p)     0.00008       2.08262
   408    H   22  py     Ryd( 2p)     0.00020       2.69637
   409    H   22  pz     Ryd( 2p)     0.00007       2.01916
 
   410    H   23  S      Val( 1S)     0.40718       0.12027
   411    H   23  S      Ryd( 2S)     0.00052       0.49308
   412    H   23  S      Ryd( 3S)     0.00052       1.00275
   413    H   23  S      Ryd( 4S)     0.00008       1.78009
   414    H   23  px     Ryd( 2p)     0.00007       1.94066
   415    H   23  py     Ryd( 2p)     0.00008       1.92842
   416    H   23  pz     Ryd( 2p)     0.00021       2.82250
 
   417    H   24  S      Val( 1S)     0.39890       0.13481
   418    H   24  S      Ryd( 2S)     0.00092       0.49017
   419    H   24  S      Ryd( 4S)     0.00056       1.83490
   420    H   24  S      Ryd( 3S)     0.00004       1.05020
   421    H   24  px     Ryd( 2p)     0.00008       2.15006
   422    H   24  py     Ryd( 2p)     0.00015       2.77339
   423    H   24  pz     Ryd( 2p)     0.00010       2.12827
 
   424    H   25  S      Val( 1S)     0.40867       0.12776
   425    H   25  S      Ryd( 2S)     0.00091       0.55182
   426    H   25  S      Ryd( 3S)     0.00077       2.00236
   427    H   25  S      Ryd( 4S)     0.00015       2.94765
   428    H   25  px     Ryd( 2p)     0.00008       2.04543
   429    H   25  py     Ryd( 2p)     0.00006       2.04463
   430    H   25  pz     Ryd( 2p)     0.00018       2.81455
 
   431    H   26  S      Val( 1S)     0.39481       0.12553
   432    H   26  S      Ryd( 2S)     0.00172       0.47676
   433    H   26  S      Ryd( 4S)     0.00041       1.54554
   434    H   26  S      Ryd( 3S)     0.00002       1.21327
   435    H   26  px     Ryd( 2p)     0.00010       2.21591
   436    H   26  py     Ryd( 2p)     0.00013       2.47696
   437    H   26  pz     Ryd( 2p)     0.00008       2.06798
 
   438    H   27  S      Val( 1S)     0.37888       0.12093
   439    H   27  S      Ryd( 2S)     0.00118       0.43987
   440    H   27  S      Ryd( 4S)     0.00023       1.57817
   441    H   27  S      Ryd( 3S)     0.00002       1.19154
   442    H   27  px     Ryd( 2p)     0.00010       2.01918
   443    H   27  py     Ryd( 2p)     0.00014       2.80043
   444    H   27  pz     Ryd( 2p)     0.00008       1.97979
 
   445    H   28  S      Val( 1S)     0.38607       0.13694
   446    H   28  S      Ryd( 2S)     0.00093       0.46118
   447    H   28  S      Ryd( 4S)     0.00050       1.91203
   448    H   28  S      Ryd( 3S)     0.00002       1.00002
   449    H   28  px     Ryd( 2p)     0.00006       1.89278
   450    H   28  py     Ryd( 2p)     0.00007       2.05219
   451    H   28  pz     Ryd( 2p)     0.00013       2.87579
 
   452    H   29  S      Val( 1S)     0.25517       0.16294
   453    H   29  S      Ryd( 2S)     0.00183       0.31649
   454    H   29  S      Ryd( 4S)     0.00045       2.19366
   455    H   29  S      Ryd( 3S)     0.00007       0.79494
   456    H   29  px     Ryd( 2p)     0.00054       2.12982
   457    H   29  py     Ryd( 2p)     0.00056       1.95116
   458    H   29  pz     Ryd( 2p)     0.00052       2.12532
 
   459    H   30  S      Val( 1S)     0.39354       0.14667
   460    H   30  S      Ryd( 2S)     0.00067       0.65753
   461    H   30  S      Ryd( 3S)     0.00062       1.37441
   462    H   30  S      Ryd( 4S)     0.00021       2.86263
   463    H   30  px     Ryd( 2p)     0.00011       1.91522
   464    H   30  py     Ryd( 2p)     0.00008       2.08257
   465    H   30  pz     Ryd( 2p)     0.00022       2.76823
 
   466    H   31  S      Val( 1S)     0.39698       0.13900
   467    H   31  S      Ryd( 2S)     0.00046       0.38212
   468    H   31  S      Ryd( 4S)     0.00027       1.50789
   469    H   31  S      Ryd( 3S)     0.00002       1.06028
   470    H   31  px     Ryd( 2p)     0.00009       1.81348
   471    H   31  py     Ryd( 2p)     0.00013       2.35908
   472    H   31  pz     Ryd( 2p)     0.00013       2.43486
 
   473    H   32  S      Val( 1S)     0.39594       0.14056
   474    H   32  S      Ryd( 2S)     0.00091       0.35056
   475    H   32  S      Ryd( 4S)     0.00025       1.52935
   476    H   32  S      Ryd( 3S)     0.00001       1.04756
   477    H   32  px     Ryd( 2p)     0.00012       1.96455
   478    H   32  py     Ryd( 2p)     0.00017       2.55089
   479    H   32  pz     Ryd( 2p)     0.00007       2.07983
 
   480    H   33  S      Val( 1S)     0.39717       0.14090
   481    H   33  S      Ryd( 2S)     0.00033       0.41052
   482    H   33  S      Ryd( 4S)     0.00029       1.53524
   483    H   33  S      Ryd( 3S)     0.00002       1.06285
   484    H   33  px     Ryd( 2p)     0.00011       1.89872
   485    H   33  py     Ryd( 2p)     0.00006       2.04117
   486    H   33  pz     Ryd( 2p)     0.00018       2.69010
 
   487    H   34  S      Val( 1S)     0.39008       0.15186
   488    H   34  S      Ryd( 2S)     0.00068       0.58090
   489    H   34  S      Ryd( 3S)     0.00046       1.59614
   490    H   34  S      Ryd( 4S)     0.00017       2.65862
   491    H   34  px     Ryd( 2p)     0.00009       1.88338
   492    H   34  py     Ryd( 2p)     0.00015       2.42189
   493    H   34  pz     Ryd( 2p)     0.00014       2.53136

 WARNING:  Population inversion found on atom  C    1
           Population inversion found on atom  C    2
           Population inversion found on atom  C    4
           Population inversion found on atom  C    5
           Population inversion found on atom  N    6
           Population inversion found on atom  C    7
           Population inversion found on atom  C    8
           Population inversion found on atom  C    9
           Population inversion found on atom  O   10
           Population inversion found on atom  O   11
           Population inversion found on atom  C   12
           Population inversion found on atom  C   13
           Population inversion found on atom  C   14
           Population inversion found on atom  C   15
           Population inversion found on atom  C   16
           Population inversion found on atom  C   17
           Population inversion found on atom  H   18
           Population inversion found on atom  H   19
           Population inversion found on atom  H   20
           Population inversion found on atom  H   21
           Population inversion found on atom  H   22
           Population inversion found on atom  H   24
           Population inversion found on atom  H   26
           Population inversion found on atom  H   27
           Population inversion found on atom  H   28
           Population inversion found on atom  H   29
           Population inversion found on atom  H   31
           Population inversion found on atom  H   32
           Population inversion found on atom  H   33


 Summary of Natural Population Analysis:                  
                                                          
                                       Natural Population 
                Natural  -----------------------------------------------
    Atom  No    Charge         Core      Valence    Rydberg      Total
 -----------------------------------------------------------------------
      C    1   -0.21983      0.99961     2.21198    0.00824     3.21983
      C    2   -0.00756      0.99961     1.99785    0.01010     3.00756
      O    3   -0.30370      0.99990     3.29539    0.00841     4.30370
      C    4   -0.00959      0.99956     1.99842    0.01160     3.00959
      C    5   -0.00844      0.99956     1.99555    0.01334     3.00844
      N    6   -0.28604      0.99967     2.77069    0.01569     3.78604
      C    7   -0.07767      0.99960     2.06614    0.01193     3.07767
      C    8   -0.24239      0.99956     2.23396    0.00887     3.24239
      C    9    0.41054      0.99972     1.56330    0.02644     2.58946
      O   10   -0.31259      0.99987     3.30669    0.00604     4.31259
      O   11   -0.34068      0.99987     3.33422    0.00659     4.34068
      C   12    0.07721      0.99945     1.90857    0.01476     2.92279
      C   13   -0.09962      0.99949     2.08933    0.01079     3.09962
      C   14   -0.09906      0.99956     2.08899    0.01052     3.09906
      C   15   -0.10079      0.99956     2.09083    0.01041     3.10079
      C   16   -0.09886      0.99956     2.08864    0.01066     3.09886
      C   17   -0.11242      0.99949     2.10308    0.00985     3.11242
      H   18    0.10279      0.00000     0.39558    0.00163     0.39721
      H   19    0.10591      0.00000     0.39283    0.00127     0.39409
      H   20    0.08459      0.00000     0.41384    0.00156     0.41541
      H   21    0.08062      0.00000     0.41797    0.00141     0.41938
      H   22    0.08356      0.00000     0.41486    0.00158     0.41644
      H   23    0.09135      0.00000     0.40718    0.00148     0.40865
      H   24    0.09925      0.00000     0.39890    0.00185     0.40075
      H   25    0.08918      0.00000     0.40867    0.00215     0.41082
      H   26    0.10273      0.00000     0.39481    0.00246     0.39727
      H   27    0.11938      0.00000     0.37888    0.00175     0.38062
      H   28    0.11223      0.00000     0.38607    0.00170     0.38777
      H   29    0.24085      0.00000     0.25517    0.00398     0.25915
      H   30    0.10455      0.00000     0.39354    0.00191     0.39545
      H   31    0.10192      0.00000     0.39698    0.00110     0.39808
      H   32    0.10253      0.00000     0.39594    0.00153     0.39747
      H   33    0.10185      0.00000     0.39717    0.00098     0.39815
      H   34    0.10823      0.00000     0.39008    0.00170     0.39177
 =======================================================================
   * Total *    0.00000     16.99364    45.78207    0.22429    63.00000

                                 Natural Population      
 --------------------------------------------------------
   Core                      16.99364 ( 99.9626% of  17)
   Valence                   45.78207 ( 99.5262% of  46)
   Natural Minimal Basis     62.77571 ( 99.6440% of  63)
   Natural Rydberg Basis      0.22429 (  0.3560% of  63)
 --------------------------------------------------------

    Atom  No          Natural Electron Configuration
 ----------------------------------------------------------------------------
      C    1      [core]2S( 0.52)2p( 1.69)
      C    2      [core]2S( 0.51)2p( 1.49)
      O    3      [core]2S( 0.81)2p( 2.48)
      C    4      [core]2S( 0.50)2p( 1.50)4p( 0.01)
      C    5      [core]2S( 0.47)2p( 1.53)3p( 0.01)
      N    6      [core]2S( 0.62)2p( 2.15)3p( 0.01)
      C    7      [core]2S( 0.50)2p( 1.57)
      C    8      [core]2S( 0.53)2p( 1.71)
      C    9      [core]2S( 0.39)2p( 1.17)3p( 0.01)3d( 0.01)
      O   10      [core]2S( 0.85)2p( 2.46)
      O   11      [core]2S( 0.84)2p( 2.49)
      C   12      [core]2S( 0.42)2p( 1.49)3p( 0.01)
      C   13      [core]2S( 0.47)2p( 1.62)3p( 0.01)
      C   14      [core]2S( 0.47)2p( 1.62)
      C   15      [core]2S( 0.47)2p( 1.62)3p( 0.01)
      C   16      [core]2S( 0.47)2p( 1.62)3p( 0.01)
      C   17      [core]2S( 0.47)2p( 1.63)3p( 0.01)
      H   18            1S( 0.40)
      H   19            1S( 0.39)
      H   20            1S( 0.41)
      H   21            1S( 0.42)
      H   22            1S( 0.41)
      H   23            1S( 0.41)
      H   24            1S( 0.40)
      H   25            1S( 0.41)
      H   26            1S( 0.39)
      H   27            1S( 0.38)
      H   28            1S( 0.39)
      H   29            1S( 0.26)
      H   30            1S( 0.39)
      H   31            1S( 0.40)
      H   32            1S( 0.40)
      H   33            1S( 0.40)
      H   34            1S( 0.39)


 NBO analysis skipped by request.
 1\1\GINC-NODE105\SP\UB3LYP\6-311++G(d,p)\C13H17N1O3(1-,2)\VSC10255\11-
 Dec-2020\0\\# B3LYP/6-311++G(d,p) empiricaldispersion=gd3bj scf=xqc po
 p=npa geom=check\\CID_63557376_JID_7594_Energie_anion\\-1,2\C,0,-1.149
 995075,-0.7241808688,-0.1869800018\C,0,0.1505286113,-1.5261080033,-0.0
 008714975\O,0,1.2426640449,-0.6018612074,-0.1416508594\C,0,0.740023849
 4,0.6342916383,-0.6287295369\C,0,-0.6697470222,0.7383073304,-0.0348532
 786\N,0,-1.5014421154,1.8080383414,-0.587822072\C,0,-2.6993049697,2.08
 05377627,0.2069924222\C,0,-3.3096738542,3.4520797124,-0.122491917\C,0,
 -4.2226192709,3.4168457447,-1.3294237825\O,0,-5.1573992728,2.656228349
 4,-1.4649106271\O,0,-3.901431818,4.3528761166,-2.2503765134\C,0,-1.695
 9701452,1.7897702375,-2.0107615362\C,0,-0.838358591,2.5600424099,-2.80
 52632633\C,0,-0.9916324787,2.5963613687,-4.1895913718\C,0,-2.020482458
 8,1.8744594524,-4.7980382249\C,0,-2.885850128,1.1116123136,-4.01350836
 9\C,0,-2.72037184,1.0603770552,-2.6290680731\H,0,-1.5553733245,-0.8692
 355295,-1.1932034816\H,0,-1.9247375672,-0.999056159,0.5345963877\H,0,0
 .2247242629,-1.9749203226,0.9966232493\H,0,0.246913578,-2.3306391038,-
 0.7421528309\H,0,0.7044802394,0.6450049467,-1.7282284442\H,0,1.4070417
 573,1.4331252437,-0.2924271112\H,0,-0.5561949999,0.9601050866,1.033252
 2425\H,0,-3.4850775399,1.3131854071,0.1155142956\H,0,-2.3822019453,2.0
 86718283,1.2550479659\H,0,-3.9359151474,3.7622783529,0.7226191616\H,0,
 -2.5180670305,4.1919426587,-0.257178149\H,0,-4.5255274234,4.2277744819
 ,-2.9901462683\H,0,-0.0628424952,3.1387461163,-2.3133116843\H,0,-0.318
 7597676,3.2006956887,-4.7913975034\H,0,-2.1494586479,1.910425198,-5.87
 61091373\H,0,-3.6931207945,0.5517531175,-4.4773150571\H,0,-3.412390620
 3,0.4822587803,-2.0271451328\\Version=ES64L-G16RevA.03\State=2-A\HF=-7
 86.3071057\S2=0.750082\S2-1=0.\S2A=0.75\RMSD=1.714e-11\Dipole=0.579676
 8,-0.5168959,-0.1269968\Quadrupole=1.0851968,10.1890753,-11.2742721,9.
 8707633,-2.0303564,6.0743325\PG=C01 [X(C13H17N1O3)]\\@


 ALL THINGS ARE POSSIBLE EXCEPT SKIING THROUGH A REVOLVING DOOR.
 Job cpu time:       0 days  1 hours 31 minutes 42.0 seconds.
 Elapsed time:       0 days  0 hours 22 minutes 58.5 seconds.
 File lengths (MBytes):  RWF=    280 Int=      0 D2E=      0 Chk=     28 Scr=      8
 Normal termination of Gaussian 16 at Fri Dec 11 14:02:53 2020.
