 Entering Gaussian System, Link 0=g16
 Initial command:
 /apps/brussel/CO7/broadwell/software/Gaussian/G16.A.03-intel-2017b/g16/l1.exe "/scratch/brussel/102/vsc10255/3546946[3116].master01.hydra.brussel.vsc/Gau-11157.inp" -scrdir="/scratch/brussel/102/vsc10255/3546946[3116].master01.hydra.brussel.vsc/"
 Entering Link 1 = /apps/brussel/CO7/broadwell/software/Gaussian/G16.A.03-intel-2017b/g16/l1.exe.bin PID=     11264.
  
 Copyright (c) 1988,1990,1992,1993,1995,1998,2003,2009,2016,
            Gaussian, Inc.  All Rights Reserved.
  
 This is part of the Gaussian(R) 16 program.  It is based on
 the Gaussian(R) 09 system (copyright 2009, Gaussian, Inc.),
 the Gaussian(R) 03 system (copyright 2003, Gaussian, Inc.),
 the Gaussian(R) 98 system (copyright 1998, Gaussian, Inc.),
 the Gaussian(R) 94 system (copyright 1995, Gaussian, Inc.),
 the Gaussian 92(TM) system (copyright 1992, Gaussian, Inc.),
 the Gaussian 90(TM) system (copyright 1990, Gaussian, Inc.),
 the Gaussian 88(TM) system (copyright 1988, Gaussian, Inc.),
 the Gaussian 86(TM) system (copyright 1986, Carnegie Mellon
 University), and the Gaussian 82(TM) system (copyright 1983,
 Carnegie Mellon University). Gaussian is a federally registered
 trademark of Gaussian, Inc.
  
 This software contains proprietary and confidential information,
 including trade secrets, belonging to Gaussian, Inc.
  
 This software is provided under written license and may be
 used, copied, transmitted, or stored only in accord with that
 written license.
  
 The following legend is applicable only to US Government
 contracts under FAR:
  
                    RESTRICTED RIGHTS LEGEND
  
 Use, reproduction and disclosure by the US Government is
 subject to restrictions as set forth in subparagraphs (a)
 and (c) of the Commercial Computer Software - Restricted
 Rights clause in FAR 52.227-19.
  
 Gaussian, Inc.
 340 Quinnipiac St., Bldg. 40, Wallingford CT 06492
  
  
 ---------------------------------------------------------------
 Warning -- This program may not be used in any manner that
 competes with the business of Gaussian, Inc. or will provide
 assistance to any competitor of Gaussian, Inc.  The licensee
 of this program is prohibited from giving any competitor of
 Gaussian, Inc. access to this program.  By using this program,
 the user acknowledges that Gaussian, Inc. is engaged in the
 business of creating and licensing software in the field of
 computational chemistry and represents and warrants to the
 licensee that it is not a competitor of Gaussian, Inc. and that
 it will not use this program in any manner prohibited above.
 ---------------------------------------------------------------
  

 Cite this work as:
 Gaussian 16, Revision A.03,
 M. J. Frisch, G. W. Trucks, H. B. Schlegel, G. E. Scuseria, 
 M. A. Robb, J. R. Cheeseman, G. Scalmani, V. Barone, 
 G. A. Petersson, H. Nakatsuji, X. Li, M. Caricato, A. V. Marenich, 
 J. Bloino, B. G. Janesko, R. Gomperts, B. Mennucci, H. P. Hratchian, 
 J. V. Ortiz, A. F. Izmaylov, J. L. Sonnenberg, D. Williams-Young, 
 F. Ding, F. Lipparini, F. Egidi, J. Goings, B. Peng, A. Petrone, 
 T. Henderson, D. Ranasinghe, V. G. Zakrzewski, J. Gao, N. Rega, 
 G. Zheng, W. Liang, M. Hada, M. Ehara, K. Toyota, R. Fukuda, 
 J. Hasegawa, M. Ishida, T. Nakajima, Y. Honda, O. Kitao, H. Nakai, 
 T. Vreven, K. Throssell, J. A. Montgomery, Jr., J. E. Peralta, 
 F. Ogliaro, M. J. Bearpark, J. J. Heyd, E. N. Brothers, K. N. Kudin, 
 V. N. Staroverov, T. A. Keith, R. Kobayashi, J. Normand, 
 K. Raghavachari, A. P. Rendell, J. C. Burant, S. S. Iyengar, 
 J. Tomasi, M. Cossi, J. M. Millam, M. Klene, C. Adamo, R. Cammi, 
 J. W. Ochterski, R. L. Martin, K. Morokuma, O. Farkas, 
 J. B. Foresman, and D. J. Fox, Gaussian, Inc., Wallingford CT, 2016.
 
 ******************************************
 Gaussian 16:  ES64L-G16RevA.03 25-Dec-2016
                 9-Dec-2020 
 ******************************************
 %chk=JID_3116.chk
 %mem=8GB
 %nprocshared=4
 Will use up to    4 processors via shared memory.
 -----------------------------------------------------------
 # opt freq B3LYP/6-31G(d) empiricaldispersion=gd3bj scf=xqc
 -----------------------------------------------------------
 1/18=20,19=15,26=3,38=1/1,3;
 2/9=110,12=2,17=6,18=5,40=1/2;
 3/5=1,6=6,7=1,11=2,25=1,30=1,71=1,74=-5,124=41/1,2,3;
 4//1;
 5/5=2,8=3,13=1,38=5/2,8;
 6/7=2,8=2,9=2,10=2,28=1/1;
 7//1,2,3,16;
 1/18=20,19=15,26=3/3(2);
 2/9=110/2;
 99//99;
 2/9=110/2;
 3/5=1,6=6,7=1,11=2,25=1,30=1,71=1,74=-5,124=41/1,2,3;
 4/5=5,16=3,69=1/1;
 5/5=2,8=3,13=1,38=5/2,8;
 7//1,2,3,16;
 1/18=20,19=15,26=3/3(-5);
 2/9=110/2;
 6/7=2,8=2,9=2,10=2,19=2,28=1/1;
 99/9=1/99;
 -------------------------------
 CID_137096263_JID_3116_neutraal
 -------------------------------
 Symbolic Z-matrix:
 Charge =  0 Multiplicity = 1
 C                     1.00893  -0.08835  -0.04599 
 C                     1.24436  -1.59216  -0.09404 
 C                     2.13855  -2.09739   1.03898 
 C                     1.48282  -2.00502   2.37481 
 N                     1.64063  -1.04793   3.26304 
 C                     0.8326   -1.38704   4.31793 
 C                     0.17843  -2.57941   4.08569 
 N                     0.60461  -2.95604   2.836 
 C                    -0.7502   -3.29722   4.89548 
 C                    -1.47288  -2.87971   5.99382 
 C                    -2.22347  -4.00194   6.3895 
 N                    -1.99554  -5.06274   5.61309 
 N                    -1.08964  -4.61426   4.72748 
 H                     0.4557    0.20256   0.85212 
 H                     0.42348   0.22801  -0.91523 
 H                     1.95737   0.45801  -0.05996 
 H                     0.278    -2.11042  -0.08074 
 H                     1.72319  -1.83541  -1.05015 
 H                     2.40559  -3.14331   0.84346 
 H                     3.07854  -1.53301   1.05471 
 H                     0.76981  -0.75496   5.19426 
 H                     0.30988  -3.76817   2.3154 
 H                    -1.46926  -1.89763   6.44477 
 H                    -2.92516  -4.08932   7.2093 
 H                    -0.73613  -5.27147   4.04325 
 

 GradGradGradGradGradGradGradGradGradGradGradGradGradGradGradGradGradGrad
 Berny optimization.
 Initialization pass.
                           ----------------------------
                           !    Initial Parameters    !
                           ! (Angstroms and Degrees)  !
 --------------------------                            --------------------------
 ! Name  Definition              Value          Derivative Info.                !
 --------------------------------------------------------------------------------
 ! R1    R(1,2)                  1.5229         estimate D2E/DX2                !
 ! R2    R(1,14)                 1.0942         estimate D2E/DX2                !
 ! R3    R(1,15)                 1.0947         estimate D2E/DX2                !
 ! R4    R(1,16)                 1.0946         estimate D2E/DX2                !
 ! R5    R(2,3)                  1.5292         estimate D2E/DX2                !
 ! R6    R(2,17)                 1.0966         estimate D2E/DX2                !
 ! R7    R(2,18)                 1.0966         estimate D2E/DX2                !
 ! R8    R(3,4)                  1.491          estimate D2E/DX2                !
 ! R9    R(3,19)                 1.097          estimate D2E/DX2                !
 ! R10   R(3,20)                 1.0965         estimate D2E/DX2                !
 ! R11   R(4,5)                  1.3152         estimate D2E/DX2                !
 ! R12   R(4,8)                  1.3742         estimate D2E/DX2                !
 ! R13   R(5,6)                  1.3714         estimate D2E/DX2                !
 ! R14   R(6,7)                  1.3797         estimate D2E/DX2                !
 ! R15   R(6,21)                 1.0823         estimate D2E/DX2                !
 ! R16   R(7,8)                  1.373          estimate D2E/DX2                !
 ! R17   R(7,9)                  1.426          estimate D2E/DX2                !
 ! R18   R(8,22)                 1.0087         estimate D2E/DX2                !
 ! R19   R(9,10)                 1.3795         estimate D2E/DX2                !
 ! R20   R(9,13)                 1.3704         estimate D2E/DX2                !
 ! R21   R(10,11)                1.4069         estimate D2E/DX2                !
 ! R22   R(10,23)                1.0807         estimate D2E/DX2                !
 ! R23   R(11,12)                1.3342         estimate D2E/DX2                !
 ! R24   R(11,24)                1.0826         estimate D2E/DX2                !
 ! R25   R(12,13)                1.3439         estimate D2E/DX2                !
 ! R26   R(13,25)                1.0125         estimate D2E/DX2                !
 ! A1    A(2,1,14)             111.5057         estimate D2E/DX2                !
 ! A2    A(2,1,15)             110.0592         estimate D2E/DX2                !
 ! A3    A(2,1,16)             111.0094         estimate D2E/DX2                !
 ! A4    A(14,1,15)            107.7284         estimate D2E/DX2                !
 ! A5    A(14,1,16)            108.4119         estimate D2E/DX2                !
 ! A6    A(15,1,16)            107.9985         estimate D2E/DX2                !
 ! A7    A(1,2,3)              113.1576         estimate D2E/DX2                !
 ! A8    A(1,2,17)             109.2723         estimate D2E/DX2                !
 ! A9    A(1,2,18)             108.3034         estimate D2E/DX2                !
 ! A10   A(3,2,17)             110.4961         estimate D2E/DX2                !
 ! A11   A(3,2,18)             108.5039         estimate D2E/DX2                !
 ! A12   A(17,2,18)            106.8886         estimate D2E/DX2                !
 ! A13   A(2,3,4)              112.7172         estimate D2E/DX2                !
 ! A14   A(2,3,19)             108.9821         estimate D2E/DX2                !
 ! A15   A(2,3,20)             109.989          estimate D2E/DX2                !
 ! A16   A(4,3,19)             109.0144         estimate D2E/DX2                !
 ! A17   A(4,3,20)             109.4073         estimate D2E/DX2                !
 ! A18   A(19,3,20)            106.5352         estimate D2E/DX2                !
 ! A19   A(3,4,5)              126.6825         estimate D2E/DX2                !
 ! A20   A(3,4,8)              122.6077         estimate D2E/DX2                !
 ! A21   A(5,4,8)              110.7098         estimate D2E/DX2                !
 ! A22   A(4,5,6)              105.5953         estimate D2E/DX2                !
 ! A23   A(5,6,7)              111.3204         estimate D2E/DX2                !
 ! A24   A(5,6,21)             120.8363         estimate D2E/DX2                !
 ! A25   A(7,6,21)             127.8419         estimate D2E/DX2                !
 ! A26   A(6,7,8)              104.0693         estimate D2E/DX2                !
 ! A27   A(6,7,9)              130.4071         estimate D2E/DX2                !
 ! A28   A(8,7,9)              125.5163         estimate D2E/DX2                !
 ! A29   A(4,8,7)              108.2999         estimate D2E/DX2                !
 ! A30   A(4,8,22)             124.8007         estimate D2E/DX2                !
 ! A31   A(7,8,22)             126.8638         estimate D2E/DX2                !
 ! A32   A(7,9,10)             129.8643         estimate D2E/DX2                !
 ! A33   A(7,9,13)             125.1323         estimate D2E/DX2                !
 ! A34   A(10,9,13)            104.994          estimate D2E/DX2                !
 ! A35   A(9,10,11)            105.1889         estimate D2E/DX2                !
 ! A36   A(9,10,23)            127.2677         estimate D2E/DX2                !
 ! A37   A(11,10,23)           127.5404         estimate D2E/DX2                !
 ! A38   A(10,11,12)           112.2969         estimate D2E/DX2                !
 ! A39   A(10,11,24)           128.5454         estimate D2E/DX2                !
 ! A40   A(12,11,24)           119.1576         estimate D2E/DX2                !
 ! A41   A(11,12,13)           103.492          estimate D2E/DX2                !
 ! A42   A(9,13,12)            114.0099         estimate D2E/DX2                !
 ! A43   A(9,13,25)            128.3313         estimate D2E/DX2                !
 ! A44   A(12,13,25)           117.6512         estimate D2E/DX2                !
 ! D1    D(14,1,2,3)           -64.4592         estimate D2E/DX2                !
 ! D2    D(14,1,2,17)           59.1132         estimate D2E/DX2                !
 ! D3    D(14,1,2,18)          175.2055         estimate D2E/DX2                !
 ! D4    D(15,1,2,3)           176.0489         estimate D2E/DX2                !
 ! D5    D(15,1,2,17)          -60.3787         estimate D2E/DX2                !
 ! D6    D(15,1,2,18)           55.7136         estimate D2E/DX2                !
 ! D7    D(16,1,2,3)            56.537          estimate D2E/DX2                !
 ! D8    D(16,1,2,17)         -179.8906         estimate D2E/DX2                !
 ! D9    D(16,1,2,18)          -63.7983         estimate D2E/DX2                !
 ! D10   D(1,2,3,4)             68.6104         estimate D2E/DX2                !
 ! D11   D(1,2,3,19)          -170.2229         estimate D2E/DX2                !
 ! D12   D(1,2,3,20)           -53.7748         estimate D2E/DX2                !
 ! D13   D(17,2,3,4)           -54.2865         estimate D2E/DX2                !
 ! D14   D(17,2,3,19)           66.8802         estimate D2E/DX2                !
 ! D15   D(17,2,3,20)         -176.6716         estimate D2E/DX2                !
 ! D16   D(18,2,3,4)          -171.1685         estimate D2E/DX2                !
 ! D17   D(18,2,3,19)          -50.0019         estimate D2E/DX2                !
 ! D18   D(18,2,3,20)           66.4463         estimate D2E/DX2                !
 ! D19   D(2,3,4,5)            -97.7226         estimate D2E/DX2                !
 ! D20   D(2,3,4,8)             82.2714         estimate D2E/DX2                !
 ! D21   D(19,3,4,5)           141.1291         estimate D2E/DX2                !
 ! D22   D(19,3,4,8)           -38.8769         estimate D2E/DX2                !
 ! D23   D(20,3,4,5)            24.9889         estimate D2E/DX2                !
 ! D24   D(20,3,4,8)          -155.0172         estimate D2E/DX2                !
 ! D25   D(3,4,5,6)            179.4383         estimate D2E/DX2                !
 ! D26   D(8,4,5,6)             -0.5562         estimate D2E/DX2                !
 ! D27   D(3,4,8,7)           -179.8264         estimate D2E/DX2                !
 ! D28   D(3,4,8,22)            -1.873          estimate D2E/DX2                !
 ! D29   D(5,4,8,7)              0.1685         estimate D2E/DX2                !
 ! D30   D(5,4,8,22)           178.1218         estimate D2E/DX2                !
 ! D31   D(4,5,6,7)              0.7594         estimate D2E/DX2                !
 ! D32   D(4,5,6,21)          -179.6321         estimate D2E/DX2                !
 ! D33   D(5,6,7,8)             -0.6495         estimate D2E/DX2                !
 ! D34   D(5,6,7,9)           -179.6836         estimate D2E/DX2                !
 ! D35   D(21,6,7,8)           179.7763         estimate D2E/DX2                !
 ! D36   D(21,6,7,9)             0.7421         estimate D2E/DX2                !
 ! D37   D(6,7,8,4)              0.2919         estimate D2E/DX2                !
 ! D38   D(6,7,8,22)          -177.6075         estimate D2E/DX2                !
 ! D39   D(9,7,8,4)            179.3883         estimate D2E/DX2                !
 ! D40   D(9,7,8,22)             1.4889         estimate D2E/DX2                !
 ! D41   D(6,7,9,10)            15.6938         estimate D2E/DX2                !
 ! D42   D(6,7,9,13)          -163.0229         estimate D2E/DX2                !
 ! D43   D(8,7,9,10)          -163.1551         estimate D2E/DX2                !
 ! D44   D(8,7,9,13)            18.1282         estimate D2E/DX2                !
 ! D45   D(7,9,10,11)         -179.972          estimate D2E/DX2                !
 ! D46   D(7,9,10,23)            0.622          estimate D2E/DX2                !
 ! D47   D(13,9,10,11)          -1.0585         estimate D2E/DX2                !
 ! D48   D(13,9,10,23)         179.5355         estimate D2E/DX2                !
 ! D49   D(7,9,13,12)         -179.5675         estimate D2E/DX2                !
 ! D50   D(7,9,13,25)            1.4768         estimate D2E/DX2                !
 ! D51   D(10,9,13,12)           1.4522         estimate D2E/DX2                !
 ! D52   D(10,9,13,25)        -177.5035         estimate D2E/DX2                !
 ! D53   D(9,10,11,12)           0.4163         estimate D2E/DX2                !
 ! D54   D(9,10,11,24)        -179.5669         estimate D2E/DX2                !
 ! D55   D(23,10,11,12)        179.8202         estimate D2E/DX2                !
 ! D56   D(23,10,11,24)         -0.163          estimate D2E/DX2                !
 ! D57   D(10,11,12,13)          0.4285         estimate D2E/DX2                !
 ! D58   D(24,11,12,13)       -179.5866         estimate D2E/DX2                !
 ! D59   D(11,12,13,9)          -1.1757         estimate D2E/DX2                !
 ! D60   D(11,12,13,25)        177.8995         estimate D2E/DX2                !
 --------------------------------------------------------------------------------
 Trust Radius=3.00D-01 FncErr=1.00D-07 GrdErr=1.00D-06 EigMax=2.50D+02 EigMin=1.00D-04
 Number of steps in this run=    140 maximum allowed number of steps=    150.
 GradGradGradGradGradGradGradGradGradGradGradGradGradGradGradGradGradGrad

                          Input orientation:                          
 ---------------------------------------------------------------------
 Center     Atomic      Atomic             Coordinates (Angstroms)
 Number     Number       Type             X           Y           Z
 ---------------------------------------------------------------------
      1          6           0        1.008930   -0.088350   -0.045990
      2          6           0        1.244360   -1.592160   -0.094040
      3          6           0        2.138550   -2.097390    1.038980
      4          6           0        1.482820   -2.005020    2.374810
      5          7           0        1.640630   -1.047930    3.263040
      6          6           0        0.832600   -1.387040    4.317930
      7          6           0        0.178430   -2.579410    4.085690
      8          7           0        0.604610   -2.956040    2.836000
      9          6           0       -0.750200   -3.297220    4.895480
     10          6           0       -1.472880   -2.879710    5.993820
     11          6           0       -2.223470   -4.001940    6.389500
     12          7           0       -1.995540   -5.062740    5.613090
     13          7           0       -1.089640   -4.614260    4.727480
     14          1           0        0.455700    0.202560    0.852120
     15          1           0        0.423480    0.228010   -0.915230
     16          1           0        1.957370    0.458010   -0.059960
     17          1           0        0.278000   -2.110420   -0.080740
     18          1           0        1.723190   -1.835410   -1.050150
     19          1           0        2.405590   -3.143310    0.843460
     20          1           0        3.078540   -1.533010    1.054710
     21          1           0        0.769810   -0.754960    5.194260
     22          1           0        0.309880   -3.768170    2.315400
     23          1           0       -1.469260   -1.897630    6.444770
     24          1           0       -2.925160   -4.089320    7.209300
     25          1           0       -0.736130   -5.271470    4.043250
 ---------------------------------------------------------------------
                    Distance matrix (angstroms):
                    1          2          3          4          5
     1  C    0.000000
     2  C    1.522886   0.000000
     3  C    2.547439   1.529238   0.000000
     4  C    3.123855   2.514466   1.490958   0.000000
     5  N    3.502787   3.423916   2.509130   1.315248   0.000000
     6  C    4.556477   4.435888   3.600224   2.140187   1.371387
     7  C    4.895497   4.425044   3.654703   2.226762   2.271610
     8  N    4.085705   3.294629   2.513868   1.374186   2.212823
     9  C    6.148944   5.637447   4.965588   3.606929   3.666092
    10  C    7.101435   6.789935   6.181010   4.753786   4.528413
    11  C    8.196348   7.737517   7.161187   5.817389   5.782058
    12  N    8.111509   7.423827   6.841526   5.651115   5.904504
    13  N    6.904627   6.150423   5.510071   4.354393   4.724158
    14  H    1.094209   2.176746   2.855989   2.871754   2.963160
    15  H    1.094721   2.158985   3.488250   4.114971   4.535131
    16  H    1.094643   2.170885   2.787573   3.495686   3.662036
    17  H    2.150403   1.096641   2.171541   2.737230   3.763842
    18  H    2.137925   1.096629   2.146071   3.437571   4.385265
    19  H    3.474847   2.152540   1.097036   2.119491   3.290919
    20  H    2.753519   2.165027   1.096519   2.124095   2.679479
    21  H    5.287889   5.375148   4.576234   3.165491   2.138637
    22  H    4.427856   3.378413   2.786537   2.118494   3.173109
    23  H    7.179477   7.086119   6.502212   5.029004   4.529549
    24  H    9.171917   8.772655   8.226894   6.866359   6.757918
    25  H    6.828752   5.880207   5.231081   4.286855   4.908768
                    6          7          8          9         10
     6  C    0.000000
     7  C    1.379717   0.000000
     8  N    2.170220   1.373028   0.000000
     9  C    2.547078   1.425961   2.488649   0.000000
    10  C    3.217438   2.541253   3.780690   1.379468   0.000000
    11  C    4.524231   3.619428   4.660398   2.213425   1.406893
    12  N    4.815245   3.636760   4.348700   2.276598   2.276785
    13  N    3.778583   2.482038   3.032800   1.370415   2.181548
    14  H    3.831543   4.274601   3.732922   5.481917   6.297372
    15  H    5.491970   5.740284   4.923689   6.897037   7.809550
    16  H    4.882135   5.438471   4.676781   6.781524   7.717204
    17  H    4.492122   4.193925   3.054361   5.218089   6.368490
    18  H    5.459896   5.414487   4.196331   6.603413   7.805315
    19  H    4.198896   3.973699   2.692362   5.138245   6.452769
    20  H    3.964109   4.323474   3.364274   5.702912   6.850097
    21  H    1.082322   2.215237   3.230083   2.977043   3.191162
    22  H    3.154860   2.136435   1.008685   2.828847   4.183105
    23  H    3.175328   2.957189   4.294693   2.208212   1.080671
    24  H    5.457389   4.655001   5.733180   3.272864   2.247146
    25  H    4.198233   2.843485   2.935345   2.150385   3.173017
                   11         12         13         14         15
    11  C    0.000000
    12  N    1.334189   0.000000
    13  N    2.103049   1.343910   0.000000
    14  H    7.451064   7.509913   6.372460   0.000000
    15  H    8.846350   8.744293   7.587970   1.767827   0.000000
    16  H    8.886288   8.848032   7.611293   1.775432   1.771216
    17  H    7.190216   6.804769   5.590942   2.500336   2.487125
    18  H    8.695882   8.285130   7.001073   3.062431   2.442366
    19  H    7.274888   6.767830   5.428254   3.872595   4.288071
    20  H    7.916243   7.680111   6.352721   3.151593   3.745824
    21  H    4.575063   5.136102   4.309250   4.457543   6.197745
    22  H    4.803207   4.226776   2.914216   4.234283   5.139974
    23  H    2.236070   3.314602   3.236244   6.276464   7.891160
    24  H    1.082625   2.087972   3.131154   8.382374   9.790849
    25  H    3.054304   2.023383   1.012455   6.447385   7.495032
                   16         17         18         19         20
    16  H    0.000000
    17  H    3.068802   0.000000
    18  H    2.509002   1.761806   0.000000
    19  H    3.739863   2.539222   2.400423   0.000000
    20  H    2.542375   3.076633   2.521677   1.757997   0.000000
    21  H    5.521632   5.468526   6.408507   5.225845   4.803277
    22  H    5.120269   2.913870   4.130367   2.636107   3.775018
    23  H    7.720256   6.758733   8.146744   6.923933   7.061741
    24  H    9.867089   8.204935   9.741960   8.356779   8.969845
    25  H    7.544416   5.294147   6.617967   4.963681   6.120389
                   21         22         23         24         25
    21  H    0.000000
    22  H    4.192709   0.000000
    23  H    2.807651   4.869903   0.000000
    24  H    5.369464   5.875277   2.740010   0.000000
    25  H    4.898116   2.517839   4.205660   4.026562   0.000000
 Stoichiometry    C9H12N4
 Framework group  C1[X(C9H12N4)]
 Deg. of freedom    69
 Full point group                 C1      NOp   1
 Largest Abelian subgroup         C1      NOp   1
 Largest concise Abelian subgroup C1      NOp   1
                         Standard orientation:                         
 ---------------------------------------------------------------------
 Center     Atomic      Atomic             Coordinates (Angstroms)
 Number     Number       Type             X           Y           Z
 ---------------------------------------------------------------------
      1          6           0       -4.069869    0.165519    1.288745
      2          6           0       -3.561692   -1.009690    0.464233
      3          6           0       -2.896196   -0.582847   -0.844769
      4          6           0       -1.603805    0.128409   -0.628444
      5          7           0       -1.415898    1.430103   -0.615666
      6          6           0       -0.078373    1.607135   -0.369926
      7          6           0        0.573226    0.397362   -0.245467
      8          7           0       -0.420697   -0.535546   -0.409795
      9          6           0        1.945316    0.108952    0.014440
     10          6           0        2.945615    0.928677    0.494424
     11          6           0        4.092968    0.116369    0.549964
     12          7           0        3.853666   -1.127092    0.129728
     13          7           0        2.551788   -1.100627   -0.202698
     14          1           0       -3.247713    0.803175    1.627487
     15          1           0       -4.596859   -0.198629    2.176490
     16          1           0       -4.767143    0.779032    0.709389
     17          1           0       -2.868725   -1.604820    1.071061
     18          1           0       -4.413901   -1.657552    0.226305
     19          1           0       -2.715682   -1.472934   -1.460111
     20          1           0       -3.574599    0.060372   -1.417825
     21          1           0        0.346485    2.600246   -0.301754
     22          1           0       -0.325666   -1.537955   -0.349861
     23          1           0        2.860649    1.968414    0.776520
     24          1           0        5.090388    0.379245    0.878790
     25          1           0        2.147615   -1.945774   -0.586671
 ---------------------------------------------------------------------
 Rotational constants (GHZ):           2.2778228           0.3672555           0.3457764
 Standard basis: 6-31G(d) (6D, 7F)
 There are   219 symmetry adapted cartesian basis functions of A   symmetry.
 There are   219 symmetry adapted basis functions of A   symmetry.
   219 basis functions,   412 primitive gaussians,   219 cartesian basis functions
    47 alpha electrons       47 beta electrons
       nuclear repulsion energy       750.5829983186 Hartrees.
 NAtoms=   25 NActive=   25 NUniq=   25 SFac= 1.00D+00 NAtFMM=   60 NAOKFM=F Big=F
 Integral buffers will be    131072 words long.
 Raffenetti 2 integral format.
 Two-electron integral symmetry is turned on.
 Nuclear repulsion after empirical dispersion term =      750.5392660560 Hartrees.
 One-electron integrals computed using PRISM.
 NBasis=   219 RedAO= T EigKep=  6.20D-04  NBF=   219
 NBsUse=   219 1.00D-06 EigRej= -1.00D+00 NBFU=   219
 ExpMin= 1.61D-01 ExpMax= 4.17D+03 ExpMxC= 6.27D+02 IAcc=3 IRadAn=         5 AccDes= 0.00D+00
 Harris functional with IExCor=  402 and IRadAn=       5 diagonalized for initial guess.
 HarFok:  IExCor=  402 AccDes= 0.00D+00 IRadAn=         5 IDoV= 1 UseB2=F ITyADJ=14
 ICtDFT=  3500011 ScaDFX=  1.000000  1.000000  1.000000  1.000000
 FoFCou: FMM=F IPFlag=           0 FMFlag=      100000 FMFlg1=           0
         NFxFlg=           0 DoJE=T BraDBF=F KetDBF=T FulRan=T
         wScrn=  0.000000 ICntrl=       500 IOpCl=  0 I1Cent=   200000004 NGrid=           0
         NMat0=    1 NMatS0=      1 NMatT0=    0 NMatD0=    1 NMtDS0=    0 NMtDT0=    0
 Petite list used in FoFCou.
 Keep R1 ints in memory in canonical form, NReq=295501542.
 Requested convergence on RMS density matrix=1.00D-08 within  32 cycles.
 Requested convergence on MAX density matrix=1.00D-06.
 Requested convergence on             energy=1.00D-06.
 No special actions if energy rises.
 Integral accuracy reduced to 1.0D-05 until final iterations.
 Initial convergence to 1.0D-05 achieved.  Increase integral accuracy.
 SCF Done:  E(RB3LYP) =  -569.216901419     A.U. after   14 cycles
            NFock= 14  Conv=0.41D-08     -V/T= 2.0093
 QCSCF skips out because SCF is already converged.

 **********************************************************************

            Population analysis using the SCF density.

 **********************************************************************

 Orbital symmetries:
       Occupied  (A) (A) (A) (A) (A) (A) (A) (A) (A) (A) (A) (A)
                 (A) (A) (A) (A) (A) (A) (A) (A) (A) (A) (A) (A)
                 (A) (A) (A) (A) (A) (A) (A) (A) (A) (A) (A) (A)
                 (A) (A) (A) (A) (A) (A) (A) (A) (A) (A) (A)
       Virtual   (A) (A) (A) (A) (A) (A) (A) (A) (A) (A) (A) (A)
                 (A) (A) (A) (A) (A) (A) (A) (A) (A) (A) (A) (A)
                 (A) (A) (A) (A) (A) (A) (A) (A) (A) (A) (A) (A)
                 (A) (A) (A) (A) (A) (A) (A) (A) (A) (A) (A) (A)
                 (A) (A) (A) (A) (A) (A) (A) (A) (A) (A) (A) (A)
                 (A) (A) (A) (A) (A) (A) (A) (A) (A) (A) (A) (A)
                 (A) (A) (A) (A) (A) (A) (A) (A) (A) (A) (A) (A)
                 (A) (A) (A) (A) (A) (A) (A) (A) (A) (A) (A) (A)
                 (A) (A) (A) (A) (A) (A) (A) (A) (A) (A) (A) (A)
                 (A) (A) (A) (A) (A) (A) (A) (A) (A) (A) (A) (A)
                 (A) (A) (A) (A) (A) (A) (A) (A) (A) (A) (A) (A)
                 (A) (A) (A) (A) (A) (A) (A) (A) (A) (A) (A) (A)
                 (A) (A) (A) (A) (A) (A) (A) (A) (A) (A) (A) (A)
                 (A) (A) (A) (A) (A) (A) (A) (A) (A) (A) (A) (A)
                 (A) (A) (A) (A)
 The electronic state is 1-A.
 Alpha  occ. eigenvalues --  -14.41113 -14.39813 -14.34756 -14.31296 -10.24721
 Alpha  occ. eigenvalues --  -10.23556 -10.22918 -10.20212 -10.20108 -10.20080
 Alpha  occ. eigenvalues --  -10.19216 -10.18009 -10.17243  -1.04759  -1.02253
 Alpha  occ. eigenvalues --   -0.87972  -0.82762  -0.80941  -0.79320  -0.74247
 Alpha  occ. eigenvalues --   -0.69231  -0.62927  -0.61841  -0.60796  -0.60129
 Alpha  occ. eigenvalues --   -0.58008  -0.56016  -0.48821  -0.46719  -0.45980
 Alpha  occ. eigenvalues --   -0.44833  -0.44625  -0.43892  -0.42695  -0.41865
 Alpha  occ. eigenvalues --   -0.40634  -0.39679  -0.39031  -0.35023  -0.34560
 Alpha  occ. eigenvalues --   -0.34061  -0.29370  -0.29108  -0.27659  -0.26756
 Alpha  occ. eigenvalues --   -0.25818  -0.20220
 Alpha virt. eigenvalues --   -0.01547   0.03380   0.04501   0.05857   0.08965
 Alpha virt. eigenvalues --    0.11339   0.12032   0.12954   0.13495   0.13623
 Alpha virt. eigenvalues --    0.15325   0.16139   0.16885   0.18120   0.18509
 Alpha virt. eigenvalues --    0.19045   0.19906   0.20561   0.21804   0.23661
 Alpha virt. eigenvalues --    0.24488   0.27013   0.29817   0.30985   0.32912
 Alpha virt. eigenvalues --    0.37745   0.39142   0.42346   0.46914   0.47377
 Alpha virt. eigenvalues --    0.50888   0.51385   0.51815   0.52474   0.53035
 Alpha virt. eigenvalues --    0.54401   0.55385   0.57228   0.57798   0.58955
 Alpha virt. eigenvalues --    0.60437   0.61840   0.62806   0.63645   0.64103
 Alpha virt. eigenvalues --    0.64940   0.65553   0.66165   0.68390   0.68952
 Alpha virt. eigenvalues --    0.70748   0.71615   0.76133   0.77443   0.79450
 Alpha virt. eigenvalues --    0.79875   0.80479   0.81498   0.82346   0.82570
 Alpha virt. eigenvalues --    0.83539   0.83845   0.85447   0.86404   0.86920
 Alpha virt. eigenvalues --    0.88345   0.89128   0.89675   0.90887   0.93032
 Alpha virt. eigenvalues --    0.93963   0.94891   0.95351   0.97111   0.98765
 Alpha virt. eigenvalues --    0.99783   1.01169   1.05581   1.09192   1.11310
 Alpha virt. eigenvalues --    1.14049   1.14788   1.18908   1.24316   1.28226
 Alpha virt. eigenvalues --    1.32354   1.33573   1.34916   1.35700   1.37248
 Alpha virt. eigenvalues --    1.38209   1.40444   1.42264   1.45591   1.47817
 Alpha virt. eigenvalues --    1.48546   1.53773   1.54842   1.56093   1.58145
 Alpha virt. eigenvalues --    1.61084   1.63296   1.67914   1.69222   1.72507
 Alpha virt. eigenvalues --    1.76468   1.77924   1.81651   1.83736   1.85773
 Alpha virt. eigenvalues --    1.88071   1.90850   1.92479   1.94604   1.95511
 Alpha virt. eigenvalues --    1.99609   2.02072   2.04883   2.05246   2.09395
 Alpha virt. eigenvalues --    2.10359   2.13596   2.16738   2.17349   2.19573
 Alpha virt. eigenvalues --    2.20790   2.21736   2.23201   2.25507   2.26652
 Alpha virt. eigenvalues --    2.29512   2.29902   2.31723   2.33408   2.35586
 Alpha virt. eigenvalues --    2.40536   2.41158   2.44263   2.44816   2.48635
 Alpha virt. eigenvalues --    2.55128   2.56966   2.60529   2.62115   2.62331
 Alpha virt. eigenvalues --    2.64000   2.64747   2.69598   2.73393   2.75876
 Alpha virt. eigenvalues --    2.77312   2.81756   2.85954   2.92155   2.98407
 Alpha virt. eigenvalues --    3.01378   3.08996   3.27574   3.30201   3.78266
 Alpha virt. eigenvalues --    4.00926   4.06568   4.09202   4.11197   4.13467
 Alpha virt. eigenvalues --    4.22715   4.28669   4.32270   4.37489   4.44679
 Alpha virt. eigenvalues --    4.53249   4.69793
          Condensed to atoms (all electrons):
               1          2          3          4          5          6
     1  C    5.061249   0.382584  -0.049484  -0.005360   0.000027   0.000021
     2  C    0.382584   4.990208   0.359434  -0.043541  -0.001773  -0.000134
     3  C   -0.049484   0.359434   5.131490   0.377267  -0.060647   0.008433
     4  C   -0.005360  -0.043541   0.377267   4.565775   0.526916  -0.110535
     5  N    0.000027  -0.001773  -0.060647   0.526916   6.758427   0.397165
     6  C    0.000021  -0.000134   0.008433  -0.110535   0.397165   4.993413
     7  C    0.000030   0.000244   0.002270  -0.068907  -0.029919   0.572494
     8  N   -0.000368  -0.001635  -0.069678   0.325840  -0.099260  -0.089496
     9  C    0.000000   0.000006  -0.000385   0.006902   0.010595  -0.066270
    10  C   -0.000000  -0.000000   0.000001   0.000010   0.000227  -0.014341
    11  C    0.000000   0.000000  -0.000000   0.000002  -0.000003   0.000297
    12  N   -0.000000   0.000000  -0.000000   0.000002   0.000001  -0.000038
    13  N    0.000000   0.000000  -0.000000  -0.000024  -0.000100   0.004041
    14  H    0.379560  -0.034036  -0.005917   0.006917   0.002694   0.000229
    15  H    0.370326  -0.030249   0.004911   0.000184   0.000041  -0.000000
    16  H    0.381045  -0.037399  -0.004371  -0.000959   0.000304   0.000004
    17  H   -0.039995   0.374835  -0.039606  -0.008432  -0.000112  -0.000028
    18  H   -0.040050   0.368258  -0.034426   0.005657  -0.000072   0.000005
    19  H    0.005623  -0.040511   0.357229  -0.033004   0.002813  -0.000285
    20  H   -0.005875  -0.035303   0.365091  -0.027366   0.000634   0.000118
    21  H    0.000002   0.000003  -0.000229   0.005902  -0.042183   0.374757
    22  H   -0.000002   0.000501  -0.000883  -0.023111   0.005679   0.008984
    23  H    0.000000   0.000000  -0.000000   0.000004   0.000015   0.002025
    24  H   -0.000000  -0.000000   0.000000  -0.000000   0.000000  -0.000003
    25  H    0.000000  -0.000000  -0.000001   0.000021   0.000011  -0.000161
               7          8          9         10         11         12
     1  C    0.000030  -0.000368   0.000000  -0.000000   0.000000  -0.000000
     2  C    0.000244  -0.001635   0.000006  -0.000000   0.000000   0.000000
     3  C    0.002270  -0.069678  -0.000385   0.000001  -0.000000  -0.000000
     4  C   -0.068907   0.325840   0.006902   0.000010   0.000002   0.000002
     5  N   -0.029919  -0.099260   0.010595   0.000227  -0.000003   0.000001
     6  C    0.572494  -0.089496  -0.066270  -0.014341   0.000297  -0.000038
     7  C    4.885160   0.291805   0.215387  -0.082711   0.008500   0.005283
     8  N    0.291805   7.083227  -0.053194   0.005201  -0.000226   0.000084
     9  C    0.215387  -0.053194   4.899112   0.582923  -0.009813  -0.107690
    10  C   -0.082711   0.005201   0.582923   5.082829   0.481918  -0.028803
    11  C    0.008500  -0.000226  -0.009813   0.481918   4.801127   0.478047
    12  N    0.005283   0.000084  -0.107690  -0.028803   0.478047   6.718567
    13  N   -0.042213  -0.010133   0.237699  -0.075999  -0.143945   0.277515
    14  H   -0.000100   0.000141  -0.000004   0.000000  -0.000000  -0.000000
    15  H   -0.000001   0.000002  -0.000000   0.000000  -0.000000  -0.000000
    16  H   -0.000002   0.000011  -0.000000   0.000000   0.000000  -0.000000
    17  H   -0.000081   0.003254  -0.000007  -0.000000   0.000000  -0.000000
    18  H   -0.000005   0.000000  -0.000000   0.000000  -0.000000  -0.000000
    19  H    0.000299  -0.003482  -0.000002   0.000000  -0.000000  -0.000000
    20  H   -0.000035   0.004179  -0.000000  -0.000000   0.000000  -0.000000
    21  H   -0.050871   0.005165  -0.001538   0.002155  -0.000012   0.000004
    22  H   -0.024968   0.298547  -0.005026  -0.000156   0.000006  -0.000037
    23  H   -0.004552   0.000002  -0.035959   0.359749  -0.037668   0.005308
    24  H   -0.000227   0.000001   0.001996  -0.044573   0.376789  -0.048500
    25  H   -0.005655   0.002657  -0.035896   0.008046   0.007015  -0.035731
              13         14         15         16         17         18
     1  C    0.000000   0.379560   0.370326   0.381045  -0.039995  -0.040050
     2  C    0.000000  -0.034036  -0.030249  -0.037399   0.374835   0.368258
     3  C   -0.000000  -0.005917   0.004911  -0.004371  -0.039606  -0.034426
     4  C   -0.000024   0.006917   0.000184  -0.000959  -0.008432   0.005657
     5  N   -0.000100   0.002694   0.000041   0.000304  -0.000112  -0.000072
     6  C    0.004041   0.000229  -0.000000   0.000004  -0.000028   0.000005
     7  C   -0.042213  -0.000100  -0.000001  -0.000002  -0.000081  -0.000005
     8  N   -0.010133   0.000141   0.000002   0.000011   0.003254   0.000000
     9  C    0.237699  -0.000004  -0.000000  -0.000000  -0.000007  -0.000000
    10  C   -0.075999   0.000000   0.000000   0.000000  -0.000000   0.000000
    11  C   -0.143945  -0.000000  -0.000000   0.000000   0.000000  -0.000000
    12  N    0.277515  -0.000000  -0.000000  -0.000000  -0.000000  -0.000000
    13  N    6.927792   0.000000   0.000000   0.000000   0.000000  -0.000000
    14  H    0.000000   0.541350  -0.029878  -0.028166  -0.004203   0.005269
    15  H    0.000000  -0.029878   0.581464  -0.030728  -0.002697  -0.004055
    16  H    0.000000  -0.028166  -0.030728   0.565169   0.005388  -0.003812
    17  H    0.000000  -0.004203  -0.002697   0.005388   0.615953  -0.036123
    18  H   -0.000000   0.005269  -0.004055  -0.003812  -0.036123   0.608565
    19  H   -0.000000   0.000027  -0.000178   0.000036  -0.001881  -0.004374
    20  H    0.000000   0.000020   0.000104   0.005222   0.005381  -0.002567
    21  H   -0.000036  -0.000011  -0.000000  -0.000000  -0.000000  -0.000000
    22  H    0.002734  -0.000032  -0.000001   0.000002   0.000686  -0.000029
    23  H    0.006107  -0.000000   0.000000  -0.000000  -0.000000  -0.000000
    24  H    0.008071   0.000000  -0.000000  -0.000000  -0.000000   0.000000
    25  H    0.325378   0.000000   0.000000  -0.000000  -0.000001   0.000000
              19         20         21         22         23         24
     1  C    0.005623  -0.005875   0.000002  -0.000002   0.000000  -0.000000
     2  C   -0.040511  -0.035303   0.000003   0.000501   0.000000  -0.000000
     3  C    0.357229   0.365091  -0.000229  -0.000883  -0.000000   0.000000
     4  C   -0.033004  -0.027366   0.005902  -0.023111   0.000004  -0.000000
     5  N    0.002813   0.000634  -0.042183   0.005679   0.000015   0.000000
     6  C   -0.000285   0.000118   0.374757   0.008984   0.002025  -0.000003
     7  C    0.000299  -0.000035  -0.050871  -0.024968  -0.004552  -0.000227
     8  N   -0.003482   0.004179   0.005165   0.298547   0.000002   0.000001
     9  C   -0.000002  -0.000000  -0.001538  -0.005026  -0.035959   0.001996
    10  C    0.000000  -0.000000   0.002155  -0.000156   0.359749  -0.044573
    11  C   -0.000000   0.000000  -0.000012   0.000006  -0.037668   0.376789
    12  N   -0.000000  -0.000000   0.000004  -0.000037   0.005308  -0.048500
    13  N   -0.000000   0.000000  -0.000036   0.002734   0.006107   0.008071
    14  H    0.000027   0.000020  -0.000011  -0.000032  -0.000000   0.000000
    15  H   -0.000178   0.000104  -0.000000  -0.000001   0.000000  -0.000000
    16  H    0.000036   0.005222  -0.000000   0.000002  -0.000000  -0.000000
    17  H   -0.001881   0.005381  -0.000000   0.000686  -0.000000  -0.000000
    18  H   -0.004374  -0.002567  -0.000000  -0.000029  -0.000000   0.000000
    19  H    0.609256  -0.030113   0.000004   0.001959  -0.000000   0.000000
    20  H   -0.030113   0.545606  -0.000011  -0.000142  -0.000000  -0.000000
    21  H    0.000004  -0.000011   0.565834  -0.000086   0.001247  -0.000000
    22  H    0.001959  -0.000142  -0.000086   0.412735   0.000001  -0.000000
    23  H   -0.000000  -0.000000   0.001247   0.000001   0.564080  -0.000958
    24  H    0.000000  -0.000000  -0.000000  -0.000000  -0.000958   0.565340
    25  H    0.000000  -0.000000   0.000003   0.001567  -0.000120  -0.000210
              25
     1  C    0.000000
     2  C   -0.000000
     3  C   -0.000001
     4  C    0.000021
     5  N    0.000011
     6  C   -0.000161
     7  C   -0.005655
     8  N    0.002657
     9  C   -0.035896
    10  C    0.008046
    11  C    0.007015
    12  N   -0.035731
    13  N    0.325378
    14  H    0.000000
    15  H    0.000000
    16  H   -0.000000
    17  H   -0.000001
    18  H    0.000000
    19  H    0.000000
    20  H   -0.000000
    21  H    0.000003
    22  H    0.001567
    23  H   -0.000120
    24  H   -0.000210
    25  H    0.403506
 Mulliken charges:
               1
     1  C   -0.439332
     2  C   -0.251493
     3  C   -0.340496
     4  C    0.499844
     5  N   -0.471478
     6  C   -0.080696
     7  C    0.328774
     8  N   -0.692644
     9  C    0.361165
    10  C   -0.276475
    11  C    0.037966
    12  N   -0.264011
    13  N   -0.516886
    14  H    0.166141
    15  H    0.140757
    16  H    0.148255
    17  H    0.127669
    18  H    0.137757
    19  H    0.136587
    20  H    0.175057
    21  H    0.139903
    22  H    0.321072
    23  H    0.140719
    24  H    0.142275
    25  H    0.329572
 Sum of Mulliken charges =   0.00000
 Mulliken charges with hydrogens summed into heavy atoms:
               1
     1  C    0.015821
     2  C    0.013934
     3  C   -0.028852
     4  C    0.499844
     5  N   -0.471478
     6  C    0.059207
     7  C    0.328774
     8  N   -0.371572
     9  C    0.361165
    10  C   -0.135756
    11  C    0.180240
    12  N   -0.264011
    13  N   -0.187315
 Electronic spatial extent (au):  <R**2>=           3231.2216
 Charge=              0.0000 electrons
 Dipole moment (field-independent basis, Debye):
    X=             -1.6046    Y=             -2.5157    Z=             -0.0933  Tot=              2.9853
 Quadrupole moment (field-independent basis, Debye-Ang):
   XX=            -83.6339   YY=            -73.0105   ZZ=            -78.2319
   XY=             11.0053   XZ=              0.6384   YZ=              4.4382
 Traceless Quadrupole moment (field-independent basis, Debye-Ang):
   XX=             -5.3418   YY=              5.2816   ZZ=              0.0602
   XY=             11.0053   XZ=              0.6384   YZ=              4.4382
 Octapole moment (field-independent basis, Debye-Ang**2):
  XXX=            -44.8920  YYY=            -12.4519  ZZZ=             -1.6108  XYY=              7.7744
  XXY=             21.2789  XXZ=              5.3654  XZZ=             -2.0811  YZZ=             -5.0080
  YYZ=             -1.7185  XYZ=              3.9064
 Hexadecapole moment (field-independent basis, Debye-Ang**3):
 XXXX=          -3641.0199 YYYY=           -459.3915 ZZZZ=           -282.2760 XXXY=            159.1847
 XXXZ=             67.5203 YYYX=             21.5491 YYYZ=             20.1061 ZZZX=             -5.3298
 ZZZY=              3.5737 XXYY=           -731.5452 XXZZ=           -648.5828 YYZZ=           -130.5545
 XXYZ=             22.5140 YYXZ=             -7.6298 ZZXY=              0.9298
 N-N= 7.505392660560D+02 E-N=-2.822066425866D+03  KE= 5.639913581022D+02
 Calling FoFJK, ICntrl=      2127 FMM=F ISym2X=0 I1Cent= 0 IOpClX= 0 NMat=1 NMatS=1 NMatT=0.
 ***** Axes restored to original set *****
 -------------------------------------------------------------------
 Center     Atomic                   Forces (Hartrees/Bohr)
 Number     Number              X              Y              Z
 -------------------------------------------------------------------
      1        6          -0.004302582    0.002502611   -0.000605132
      2        6           0.000757698    0.003977230   -0.007810300
      3        6           0.000568767   -0.005797016    0.000602206
      4        6           0.006255596   -0.003238353   -0.002475342
      5        7          -0.001705679    0.002994634    0.002101841
      6        6           0.001368233    0.005949349    0.005328653
      7        6           0.002992831    0.009906046    0.003204640
      8        7           0.004969134   -0.004934298   -0.012485133
      9        6          -0.001411916   -0.008885214    0.001432467
     10        6          -0.006626645    0.003866722    0.008751034
     11        6          -0.003719104   -0.003849945    0.004004365
     12        7          -0.002828181    0.000570801    0.005954881
     13        7           0.004829160   -0.001921836   -0.012018315
     14        1           0.001732605    0.000717009    0.001207791
     15        1          -0.000275741    0.001263851   -0.000491716
     16        1           0.000353643    0.000772905    0.000891206
     17        1          -0.000042827   -0.002286024    0.000367087
     18        1          -0.000105344   -0.002359158   -0.000625163
     19        1           0.000805304   -0.001434240    0.000043567
     20        1          -0.002362104    0.000652653    0.002112632
     21        1          -0.000211226   -0.001855712    0.000472585
     22        1          -0.001149606   -0.000411257   -0.000150552
     23        1           0.000077706   -0.000032843   -0.001679021
     24        1           0.000237549    0.000662249   -0.000337770
     25        1          -0.000207273    0.003169837    0.002203487
 -------------------------------------------------------------------
 Cartesian Forces:  Max     0.012485133 RMS     0.003884479

 GradGradGradGradGradGradGradGradGradGradGradGradGradGradGradGradGradGrad
 Berny optimization.
 FormGI is forming the generalized inverse of G from B-inverse, IUseBI=4.
 Internal  Forces:  Max     0.014592187 RMS     0.002792803
 Search for a local minimum.
 Step number   1 out of a maximum of  140
 All quantities printed in internal units (Hartrees-Bohrs-Radians)
 Mixed Optimization -- RFO/linear search
 Second derivative matrix not updated -- first step.
 ITU=  0
     Eigenvalues ---    0.00379   0.00463   0.00886   0.01550   0.01745
     Eigenvalues ---    0.02017   0.02022   0.02043   0.02070   0.02120
     Eigenvalues ---    0.02135   0.02156   0.02225   0.02273   0.02289
     Eigenvalues ---    0.02398   0.03534   0.04153   0.04882   0.05463
     Eigenvalues ---    0.05529   0.05697   0.08434   0.09486   0.12275
     Eigenvalues ---    0.12896   0.15983   0.15998   0.15999   0.16000
     Eigenvalues ---    0.16000   0.16000   0.16000   0.16000   0.21933
     Eigenvalues ---    0.21940   0.22679   0.23378   0.23414   0.24064
     Eigenvalues ---    0.24992   0.24994   0.25000   0.29494   0.30090
     Eigenvalues ---    0.33345   0.34012   0.34056   0.34058   0.34070
     Eigenvalues ---    0.34273   0.34282   0.34331   0.35679   0.35715
     Eigenvalues ---    0.35913   0.40871   0.41575   0.43405   0.45564
     Eigenvalues ---    0.46120   0.46193   0.46286   0.48723   0.49825
     Eigenvalues ---    0.50545   0.54326   0.56595   0.60581
 RFO step:  Lambda=-3.74953077D-03 EMin= 3.79191029D-03
 Linear search not attempted -- first point.
 Iteration  1 RMS(Cart)=  0.05069285 RMS(Int)=  0.00099271
 Iteration  2 RMS(Cart)=  0.00147691 RMS(Int)=  0.00012794
 Iteration  3 RMS(Cart)=  0.00000094 RMS(Int)=  0.00012794
 Variable       Old X    -DE/DX   Delta X   Delta X   Delta X     New X
                                 (Linear)    (Quad)   (Total)
    R1        2.87784   0.00561   0.00000   0.01840   0.01840   2.89624
    R2        2.06776   0.00031   0.00000   0.00088   0.00088   2.06864
    R3        2.06872   0.00090   0.00000   0.00261   0.00261   2.07133
    R4        2.06858   0.00068   0.00000   0.00196   0.00196   2.07054
    R5        2.88984   0.00785   0.00000   0.02629   0.02629   2.91613
    R6        2.07235   0.00112   0.00000   0.00326   0.00326   2.07561
    R7        2.07233   0.00102   0.00000   0.00297   0.00297   2.07530
    R8        2.81750   0.00272   0.00000   0.00807   0.00807   2.82557
    R9        2.07310   0.00156   0.00000   0.00452   0.00452   2.07762
   R10        2.07212  -0.00166   0.00000  -0.00482  -0.00482   2.06731
   R11        2.48546   0.00786   0.00000   0.01212   0.01218   2.49764
   R12        2.59684   0.00047   0.00000   0.00113   0.00123   2.59807
   R13        2.59154   0.00347   0.00000   0.00639   0.00632   2.59786
   R14        2.60729   0.00291   0.00000   0.00594   0.00584   2.61313
   R15        2.04529  -0.00069   0.00000  -0.00191  -0.00191   2.04338
   R16        2.59465   0.01459   0.00000   0.02920   0.02921   2.62386
   R17        2.69468   0.01424   0.00000   0.03393   0.03393   2.72861
   R18        1.90614   0.00074   0.00000   0.00160   0.00160   1.90774
   R19        2.60682   0.01182   0.00000   0.02414   0.02408   2.63090
   R20        2.58971  -0.00044   0.00000  -0.00046  -0.00047   2.58924
   R21        2.65864   0.00302   0.00000   0.00644   0.00643   2.66507
   R22        2.04217  -0.00073   0.00000  -0.00201  -0.00201   2.04016
   R23        2.52125   0.00057   0.00000   0.00059   0.00063   2.52189
   R24        2.04586  -0.00046   0.00000  -0.00128  -0.00128   2.04458
   R25        2.53962   0.00854   0.00000   0.01504   0.01509   2.55471
   R26        1.91326  -0.00362   0.00000  -0.00788  -0.00788   1.90538
    A1        1.94614   0.00008   0.00000  -0.00101  -0.00109   1.94505
    A2        1.92089   0.00175   0.00000   0.01599   0.01593   1.93683
    A3        1.93748   0.00009   0.00000  -0.00332  -0.00336   1.93412
    A4        1.88022  -0.00010   0.00000   0.00669   0.00660   1.88682
    A5        1.89214  -0.00126   0.00000  -0.01751  -0.01757   1.87457
    A6        1.88493  -0.00063   0.00000  -0.00098  -0.00099   1.88394
    A7        1.97497  -0.00042   0.00000   0.00011  -0.00003   1.97495
    A8        1.90716   0.00098   0.00000   0.00233   0.00221   1.90938
    A9        1.89025   0.00169   0.00000   0.02685   0.02674   1.91699
   A10        1.92852  -0.00149   0.00000  -0.02419  -0.02422   1.90430
   A11        1.89375  -0.00009   0.00000   0.00506   0.00484   1.89859
   A12        1.86556  -0.00062   0.00000  -0.00967  -0.00976   1.85580
   A13        1.96729   0.00279   0.00000   0.01143   0.01117   1.97845
   A14        1.90210  -0.00018   0.00000   0.01399   0.01372   1.91582
   A15        1.91967  -0.00024   0.00000  -0.00833  -0.00841   1.91126
   A16        1.90266  -0.00008   0.00000   0.01266   0.01238   1.91504
   A17        1.90952  -0.00315   0.00000  -0.03604  -0.03605   1.87347
   A18        1.85939   0.00077   0.00000   0.00654   0.00667   1.86606
   A19        2.21103   0.00188   0.00000   0.00730   0.00688   2.21791
   A20        2.13991   0.00020   0.00000   0.00066   0.00026   2.14016
   A21        1.93225  -0.00208   0.00000  -0.00797  -0.00815   1.92410
   A22        1.84299   0.00438   0.00000   0.01591   0.01590   1.85888
   A23        1.94291  -0.00237   0.00000  -0.01076  -0.01091   1.93200
   A24        2.10899   0.00274   0.00000   0.01487   0.01494   2.12394
   A25        2.23126  -0.00037   0.00000  -0.00410  -0.00403   2.22724
   A26        1.81635   0.00063   0.00000   0.00403   0.00391   1.82026
   A27        2.27603   0.00165   0.00000   0.00585   0.00585   2.28188
   A28        2.19067  -0.00228   0.00000  -0.00963  -0.00963   2.18104
   A29        1.89019  -0.00056   0.00000  -0.00080  -0.00081   1.88938
   A30        2.17818   0.00092   0.00000   0.00392   0.00373   2.18191
   A31        2.21419  -0.00039   0.00000  -0.00407  -0.00423   2.20996
   A32        2.26656   0.00335   0.00000   0.01238   0.01242   2.27898
   A33        2.18397  -0.00273   0.00000  -0.01157  -0.01153   2.17244
   A34        1.83249  -0.00061   0.00000  -0.00044  -0.00073   1.83176
   A35        1.83589   0.00077   0.00000   0.00420   0.00397   1.83986
   A36        2.22124  -0.00159   0.00000  -0.00946  -0.00935   2.21189
   A37        2.22600   0.00083   0.00000   0.00532   0.00543   2.23143
   A38        1.95995  -0.00192   0.00000  -0.00932  -0.00947   1.95048
   A39        2.24354   0.00036   0.00000   0.00097   0.00102   2.24456
   A40        2.07969   0.00156   0.00000   0.00834   0.00839   2.08808
   A41        1.80628   0.00368   0.00000   0.01402   0.01391   1.82019
   A42        1.98985  -0.00188   0.00000  -0.00721  -0.00766   1.98218
   A43        2.23980  -0.00031   0.00000  -0.00435  -0.00462   2.23519
   A44        2.05340   0.00217   0.00000   0.01083   0.01056   2.06396
    D1       -1.12503   0.00185   0.00000   0.06022   0.06029  -1.06473
    D2        1.03172   0.00035   0.00000   0.03070   0.03068   1.06240
    D3        3.05791   0.00107   0.00000   0.03527   0.03523   3.09314
    D4        3.07263   0.00077   0.00000   0.04195   0.04200   3.11464
    D5       -1.05381  -0.00073   0.00000   0.01244   0.01239  -1.04142
    D6        0.97239  -0.00002   0.00000   0.01700   0.01694   0.98933
    D7        0.98676   0.00036   0.00000   0.03492   0.03501   1.02177
    D8       -3.13968  -0.00114   0.00000   0.00541   0.00540  -3.13429
    D9       -1.11349  -0.00043   0.00000   0.00998   0.00995  -1.10354
   D10        1.19748  -0.00221   0.00000  -0.07763  -0.07765   1.11982
   D11       -2.97095  -0.00060   0.00000  -0.04434  -0.04423  -3.01518
   D12       -0.93855   0.00009   0.00000  -0.03310  -0.03307  -0.97161
   D13       -0.94748  -0.00206   0.00000  -0.06259  -0.06267  -1.01015
   D14        1.16728  -0.00045   0.00000  -0.02930  -0.02925   1.13803
   D15       -3.08350   0.00024   0.00000  -0.01805  -0.01808  -3.10158
   D16       -2.98745  -0.00041   0.00000  -0.04023  -0.04031  -3.02776
   D17       -0.87270   0.00120   0.00000  -0.00694  -0.00689  -0.87959
   D18        1.15971   0.00189   0.00000   0.00431   0.00428   1.16398
   D19       -1.70558   0.00119   0.00000   0.04270   0.04281  -1.66277
   D20        1.43591   0.00017   0.00000  -0.01022  -0.01030   1.42560
   D21        2.46317  -0.00036   0.00000   0.00864   0.00864   2.47181
   D22       -0.67853  -0.00138   0.00000  -0.04428  -0.04447  -0.72300
   D23        0.43614   0.00052   0.00000   0.01377   0.01395   0.45008
   D24       -2.70556  -0.00050   0.00000  -0.03915  -0.03917  -2.74473
   D25        3.13179  -0.00063   0.00000  -0.03067  -0.03068   3.10111
   D26       -0.00971   0.00029   0.00000   0.01699   0.01699   0.00728
   D27       -3.13856   0.00099   0.00000   0.04561   0.04551  -3.09305
   D28       -0.03269   0.00029   0.00000   0.01829   0.01802  -0.01467
   D29        0.00294   0.00012   0.00000   0.00024   0.00035   0.00329
   D30        3.10881  -0.00059   0.00000  -0.02708  -0.02713   3.08168
   D31        0.01325  -0.00062   0.00000  -0.02874  -0.02874  -0.01549
   D32       -3.13517  -0.00061   0.00000  -0.02613  -0.02624   3.12177
   D33       -0.01134   0.00071   0.00000   0.02855   0.02841   0.01707
   D34       -3.13607   0.00035   0.00000   0.01305   0.01280  -3.12327
   D35        3.13769   0.00068   0.00000   0.02563   0.02563  -3.11986
   D36        0.01295   0.00032   0.00000   0.01013   0.01002   0.02298
   D37        0.00509  -0.00049   0.00000  -0.01720  -0.01733  -0.01223
   D38       -3.09984   0.00020   0.00000   0.01063   0.01051  -3.08933
   D39        3.13092  -0.00010   0.00000  -0.00252  -0.00271   3.12821
   D40        0.02599   0.00059   0.00000   0.02532   0.02513   0.05111
   D41        0.27391   0.00101   0.00000   0.04448   0.04449   0.31840
   D42       -2.84529   0.00041   0.00000   0.01918   0.01916  -2.82613
   D43       -2.84759   0.00054   0.00000   0.02586   0.02588  -2.82172
   D44        0.31640  -0.00005   0.00000   0.00055   0.00054   0.31694
   D45       -3.14110   0.00047   0.00000   0.01763   0.01763  -3.12347
   D46        0.01086   0.00034   0.00000   0.01134   0.01133   0.02218
   D47       -0.01847   0.00094   0.00000   0.03890   0.03910   0.02062
   D48        3.13349   0.00081   0.00000   0.03261   0.03280  -3.11690
   D49       -3.13404  -0.00077   0.00000  -0.02947  -0.02938   3.11976
   D50        0.02578   0.00048   0.00000   0.01983   0.01970   0.04547
   D51        0.02535  -0.00130   0.00000  -0.04976  -0.04949  -0.02414
   D52       -3.09802  -0.00005   0.00000  -0.00046  -0.00041  -3.09843
   D53        0.00727  -0.00048   0.00000  -0.01922  -0.01918  -0.01191
   D54       -3.13403  -0.00014   0.00000  -0.00720  -0.00724  -3.14127
   D55        3.13845  -0.00036   0.00000  -0.01302  -0.01290   3.12556
   D56       -0.00285  -0.00003   0.00000  -0.00100  -0.00096  -0.00380
   D57        0.00748  -0.00027   0.00000  -0.00980  -0.00982  -0.00234
   D58       -3.13438  -0.00057   0.00000  -0.02056  -0.02055   3.12826
   D59       -0.02052   0.00092   0.00000   0.03713   0.03726   0.01674
   D60        3.10493  -0.00021   0.00000  -0.00667  -0.00675   3.09818
         Item               Value     Threshold  Converged?
 Maximum Force            0.014592     0.000450     NO 
 RMS     Force            0.002793     0.000300     NO 
 Maximum Displacement     0.174284     0.001800     NO 
 RMS     Displacement     0.050769     0.001200     NO 
 Predicted change in Energy=-1.992942D-03
 GradGradGradGradGradGradGradGradGradGradGradGradGradGradGradGradGradGrad

                          Input orientation:                          
 ---------------------------------------------------------------------
 Center     Atomic      Atomic             Coordinates (Angstroms)
 Number     Number       Type             X           Y           Z
 ---------------------------------------------------------------------
      1          6           0        0.954457   -0.095918    0.001698
      2          6           0        1.254299   -1.594010   -0.119746
      3          6           0        2.161729   -2.124777    1.009928
      4          6           0        1.535341   -2.035697    2.364702
      5          7           0        1.687409   -1.066847    3.250749
      6          6           0        0.884576   -1.385963    4.320097
      7          6           0        0.204977   -2.567198    4.085617
      8          7           0        0.643855   -2.972162    2.832109
      9          6           0       -0.753004   -3.280337    4.897161
     10          6           0       -1.522694   -2.852708    5.975569
     11          6           0       -2.255747   -3.985598    6.385596
     12          7           0       -1.990599   -5.048656    5.623651
     13          7           0       -1.089549   -4.597017    4.722681
     14          1           0        0.430720    0.132989    0.935301
     15          1           0        0.331253    0.248262   -0.831724
     16          1           0        1.881200    0.488553   -0.006010
     17          1           0        0.310773   -2.156291   -0.117185
     18          1           0        1.734382   -1.800856   -1.085551
     19          1           0        2.446033   -3.165923    0.800327
     20          1           0        3.087022   -1.541914    1.039525
     21          1           0        0.836205   -0.760412    5.200769
     22          1           0        0.327152   -3.779226    2.314905
     23          1           0       -1.547638   -1.859225    6.397376
     24          1           0       -2.970538   -4.071113    7.193287
     25          1           0       -0.711403   -5.252287    4.056148
 ---------------------------------------------------------------------
                    Distance matrix (angstroms):
                    1          2          3          4          5
     1  C    0.000000
     2  C    1.532623   0.000000
     3  C    2.567158   1.543148   0.000000
     4  C    3.111906   2.539007   1.495229   0.000000
     5  N    3.469331   3.438855   2.522990   1.321694   0.000000
     6  C    4.507513   4.460066   3.624112   2.160838   1.374729
     7  C    4.831909   4.442212   3.672122   2.239176   2.268405
     8  N    4.047280   3.314422   2.518402   1.374839   2.212349
     9  C    6.084531   5.660594   4.994154   3.633043   3.683181
    10  C    7.030171   6.815341   6.225950   4.801817   4.573697
    11  C    8.135673   7.769143   7.202400   5.860209   5.821928
    12  N    8.050424   7.446512   6.861293   5.668414   5.917196
    13  N    6.835608   6.161232   5.519721   4.360100   4.726540
    14  H    1.094675   2.184933   2.845957   2.822512   2.894853
    15  H    1.096100   2.180113   3.517618   4.108946   4.498362
    16  H    1.095682   2.177846   2.817858   3.480192   3.614320
    17  H    2.161851   1.098366   2.167352   2.770176   3.798025
    18  H    2.167304   1.098200   2.163003   3.463959   4.398236
    19  H    3.505358   2.176620   1.099430   2.134019   3.314543
    20  H    2.777737   2.169216   1.093971   2.099435   2.659721
    21  H    5.242698   5.401627   4.602354   3.187228   2.149658
    22  H    4.394451   3.400338   2.793894   2.121814   3.175390
    23  H    7.090446   7.098878   6.546336   5.079209   4.581992
    24  H    9.106411   8.801463   8.268151   6.910941   6.801889
    25  H    6.767703   5.889403   5.226439   4.272622   4.890897
                    6          7          8          9         10
     6  C    0.000000
     7  C    1.382806   0.000000
     8  N    2.188169   1.388485   0.000000
     9  C    2.569693   1.443918   2.512096   0.000000
    10  C    3.269079   2.576486   3.819626   1.392212   0.000000
    11  C    4.570122   3.654712   4.697022   2.229589   1.410294
    12  N    4.835411   3.652907   4.364044   2.277362   2.272657
    13  N    3.790793   2.490344   3.036298   1.370165   2.190880
    14  H    3.737653   4.155293   3.644896   5.361748   6.175315
    15  H    5.433058   5.667716   4.887998   6.815186   7.706645
    16  H    4.818950   5.374826   4.643543   6.721954   7.650478
    17  H    4.540058   4.224166   3.078136   5.247739   6.400644
    18  H    5.487745   5.446773   4.231934   6.645961   7.846933
    19  H    4.242073   4.021682   2.722779   5.199132   6.529320
    20  H    3.954396   4.316951   3.350825   5.713954   6.879839
    21  H    1.081313   2.215060   3.246442   2.994626   3.246910
    22  H    3.171628   2.149269   1.009531   2.843180   4.204857
    23  H    3.233377   2.986154   4.330404   2.213966   1.079607
    24  H    5.507010   4.690764   5.769871   3.288614   2.250245
    25  H    4.191096   2.837309   2.921296   2.144206   3.178105
                   11         12         13         14         15
    11  C    0.000000
    12  N    1.334525   0.000000
    13  N    2.121117   1.351893   0.000000
    14  H    7.340680   7.395462   6.247273   0.000000
    15  H    8.758302   8.667191   7.506453   1.773572   0.000000
    16  H    8.830911   8.794578   7.553073   1.765329   1.772535
    17  H    7.226309   6.827831   5.598424   2.522483   2.508558
    18  H    8.747129   8.332891   7.037661   3.085957   2.496414
    19  H    7.346688   6.818565   5.471127   3.868142   4.335037
    20  H    7.943377   7.687241   6.351617   3.141991   3.781609
    21  H    4.622316   5.153512   4.319333   4.376849   6.137050
    22  H    4.825399   4.234527   2.910878   4.149634   5.110964
    23  H    2.241209   3.311696   3.241905   6.141423   7.760903
    24  H    1.081945   2.092757   3.149379   8.270757   9.693278
    25  H    3.068522   2.033438   1.008286   6.328138   7.431990
                   16         17         18         19         20
    16  H    0.000000
    17  H    3.077955   0.000000
    18  H    2.535421   1.758047   0.000000
    19  H    3.784761   2.533874   2.434418   0.000000
    20  H    2.582625   3.069690   2.532318   1.762239   0.000000
    21  H    5.455500   5.523151   6.434833   5.267060   4.795089
    22  H    5.100555   2.923910   4.178199   2.675769   3.774790
    23  H    7.633633   6.780961   8.171246   6.998844   7.091355
    24  H    9.806111   8.238722   9.789254   8.427843   8.997759
    25  H    7.495330   5.295917   6.658176   4.992263   6.106956
                   21         22         23         24         25
    21  H    0.000000
    22  H    4.207206   0.000000
    23  H    2.884782   4.885469   0.000000
    24  H    5.424220   5.895640   2.747829   0.000000
    25  H    4.886941   2.506079   4.206365   4.042339   0.000000
 Stoichiometry    C9H12N4
 Framework group  C1[X(C9H12N4)]
 Deg. of freedom    69
 Full point group                 C1      NOp   1
 Largest Abelian subgroup         C1      NOp   1
 Largest concise Abelian subgroup C1      NOp   1
                         Standard orientation:                         
 ---------------------------------------------------------------------
 Center     Atomic      Atomic             Coordinates (Angstroms)
 Number     Number       Type             X           Y           Z
 ---------------------------------------------------------------------
      1          6           0       -3.989558    0.196768    1.349085
      2          6           0       -3.580023   -1.009595    0.497085
      3          6           0       -2.919666   -0.612167   -0.839809
      4          6           0       -1.621684    0.109993   -0.668240
      5          7           0       -1.433503    1.418141   -0.653684
      6          6           0       -0.093856    1.617436   -0.418082
      7          6           0        0.560276    0.408944   -0.263779
      8          7           0       -0.434481   -0.543967   -0.437874
      9          6           0        1.946458    0.116583    0.015370
     10          6           0        2.955357    0.923351    0.534505
     11          6           0        4.107633    0.110730    0.563417
     12          7           0        3.855841   -1.120653    0.114804
     13          7           0        2.541089   -1.099041   -0.199162
     14          1           0       -3.123324    0.810188    1.616794
     15          1           0       -4.478400   -0.125260    2.275782
     16          1           0       -4.689923    0.838972    0.803575
     17          1           0       -2.885149   -1.640293    1.067855
     18          1           0       -4.459575   -1.632272    0.285646
     19          1           0       -2.767157   -1.507228   -1.459771
     20          1           0       -3.590082    0.049754   -1.395843
     21          1           0        0.333892    2.609605   -0.374829
     22          1           0       -0.331377   -1.544612   -0.352829
     23          1           0        2.862012    1.951881    0.849087
     24          1           0        5.104219    0.364273    0.899775
     25          1           0        2.132625   -1.928626   -0.601142
 ---------------------------------------------------------------------
 Rotational constants (GHZ):           2.2162493           0.3665651           0.3463957
 Standard basis: 6-31G(d) (6D, 7F)
 There are   219 symmetry adapted cartesian basis functions of A   symmetry.
 There are   219 symmetry adapted basis functions of A   symmetry.
   219 basis functions,   412 primitive gaussians,   219 cartesian basis functions
    47 alpha electrons       47 beta electrons
       nuclear repulsion energy       747.9842411082 Hartrees.
 NAtoms=   25 NActive=   25 NUniq=   25 SFac= 1.00D+00 NAtFMM=   60 NAOKFM=F Big=F
 Integral buffers will be    131072 words long.
 Raffenetti 2 integral format.
 Two-electron integral symmetry is turned on.
 Nuclear repulsion after empirical dispersion term =      747.9404308665 Hartrees.
 One-electron integrals computed using PRISM.
 NBasis=   219 RedAO= T EigKep=  6.77D-04  NBF=   219
 NBsUse=   219 1.00D-06 EigRej= -1.00D+00 NBFU=   219
 Initial guess from the checkpoint file:  "JID_3116.chk"
 B after Tr=     0.000000    0.000000   -0.000000
         Rot=    0.999984    0.005170   -0.002169    0.000528 Ang=   0.65 deg.
 ExpMin= 1.61D-01 ExpMax= 4.17D+03 ExpMxC= 6.27D+02 IAcc=2 IRadAn=         4 AccDes= 0.00D+00
 Harris functional with IExCor=  402 and IRadAn=       4 diagonalized for initial guess.
 HarFok:  IExCor=  402 AccDes= 0.00D+00 IRadAn=         4 IDoV= 1 UseB2=F ITyADJ=14
 ICtDFT=  3500011 ScaDFX=  1.000000  1.000000  1.000000  1.000000
 FoFCou: FMM=F IPFlag=           0 FMFlag=      100000 FMFlg1=           0
         NFxFlg=           0 DoJE=T BraDBF=F KetDBF=T FulRan=T
         wScrn=  0.000000 ICntrl=       500 IOpCl=  0 I1Cent=   200000004 NGrid=           0
         NMat0=    1 NMatS0=      1 NMatT0=    0 NMatD0=    1 NMtDS0=    0 NMtDT0=    0
 Petite list used in FoFCou.
 Keep R1 ints in memory in canonical form, NReq=295501542.
 Requested convergence on RMS density matrix=1.00D-08 within  32 cycles.
 Requested convergence on MAX density matrix=1.00D-06.
 Requested convergence on             energy=1.00D-06.
 No special actions if energy rises.
 Integral accuracy reduced to 1.0D-05 until final iterations.
 Initial convergence to 1.0D-05 achieved.  Increase integral accuracy.
 SCF Done:  E(RB3LYP) =  -569.218550576     A.U. after   12 cycles
            NFock= 12  Conv=0.44D-08     -V/T= 2.0097
 QCSCF skips out because SCF is already converged.
 Calling FoFJK, ICntrl=      2127 FMM=F ISym2X=0 I1Cent= 0 IOpClX= 0 NMat=1 NMatS=1 NMatT=0.
 ***** Axes restored to original set *****
 -------------------------------------------------------------------
 Center     Atomic                   Forces (Hartrees/Bohr)
 Number     Number              X              Y              Z
 -------------------------------------------------------------------
      1        6          -0.000292839   -0.000824988   -0.000379608
      2        6          -0.001686716    0.001559878   -0.000597652
      3        6           0.000806581    0.000221744    0.000572670
      4        6          -0.001820048   -0.000380727    0.002660868
      5        7           0.002714507    0.000957134    0.000349831
      6        6          -0.000869894   -0.001479714   -0.004799888
      7        6           0.000081525    0.001938663    0.002455650
      8        7           0.000332059   -0.000754330   -0.001307139
      9        6          -0.002581079   -0.000676408   -0.000185897
     10        6           0.001204867    0.000316912    0.001567270
     11        6           0.002680420   -0.000841867   -0.004163090
     12        7          -0.003145635   -0.002010908    0.000482491
     13        7           0.000939041    0.002299945    0.001633242
     14        1           0.000651964   -0.000372931    0.000207264
     15        1           0.000220913   -0.000450343    0.000185537
     16        1           0.000241037    0.000165212    0.000074121
     17        1          -0.000174112   -0.000563592   -0.000326644
     18        1           0.000448429   -0.000031212    0.000913830
     19        1          -0.000686636    0.000601003    0.000115035
     20        1           0.000402276    0.000420698    0.000070011
     21        1           0.000014498   -0.000380093   -0.000095387
     22        1          -0.001049615    0.000292926    0.000136332
     23        1           0.000483177    0.000442082   -0.000568153
     24        1           0.000282616   -0.000069035   -0.000138226
     25        1           0.000802663   -0.000380049    0.001137533
 -------------------------------------------------------------------
 Cartesian Forces:  Max     0.004799888 RMS     0.001326891

 GradGradGradGradGradGradGradGradGradGradGradGradGradGradGradGradGradGrad
 Berny optimization.
 Using GEDIIS/GDIIS optimizer.
 FormGI is forming the generalized inverse of G from B-inverse, IUseBI=4.
 Internal  Forces:  Max     0.002963833 RMS     0.000821967
 Search for a local minimum.
 Step number   2 out of a maximum of  140
 All quantities printed in internal units (Hartrees-Bohrs-Radians)
 Mixed Optimization -- En-DIIS/RFO-DIIS
 Update second derivatives using D2CorX and points    1    2
 DE= -1.65D-03 DEPred=-1.99D-03 R= 8.27D-01
 TightC=F SS=  1.41D+00  RLast= 2.49D-01 DXNew= 5.0454D-01 7.4726D-01
 Trust test= 8.27D-01 RLast= 2.49D-01 DXMaxT set to 5.05D-01
 ITU=  1  0
 Use linear search instead of GDIIS.
     Eigenvalues ---    0.00380   0.00461   0.00884   0.01531   0.01704
     Eigenvalues ---    0.02004   0.02027   0.02047   0.02069   0.02124
     Eigenvalues ---    0.02147   0.02191   0.02249   0.02277   0.02353
     Eigenvalues ---    0.02515   0.03591   0.04202   0.04871   0.05400
     Eigenvalues ---    0.05516   0.05596   0.08325   0.09603   0.12290
     Eigenvalues ---    0.12918   0.15716   0.15962   0.15978   0.15999
     Eigenvalues ---    0.16000   0.16000   0.16000   0.16082   0.21794
     Eigenvalues ---    0.21951   0.22932   0.23391   0.23624   0.24292
     Eigenvalues ---    0.24831   0.24987   0.25845   0.29439   0.30756
     Eigenvalues ---    0.33454   0.34025   0.34032   0.34063   0.34194
     Eigenvalues ---    0.34271   0.34316   0.34367   0.35668   0.35706
     Eigenvalues ---    0.35921   0.40941   0.41163   0.43501   0.45485
     Eigenvalues ---    0.46081   0.46194   0.47207   0.48774   0.49637
     Eigenvalues ---    0.51019   0.54332   0.56887   0.61095
 RFO step:  Lambda=-6.55016227D-04 EMin= 3.80250106D-03
 Quartic linear search produced a step of -0.10154.
 Iteration  1 RMS(Cart)=  0.03081668 RMS(Int)=  0.00040727
 Iteration  2 RMS(Cart)=  0.00055260 RMS(Int)=  0.00005088
 Iteration  3 RMS(Cart)=  0.00000014 RMS(Int)=  0.00005088
 Variable       Old X    -DE/DX   Delta X   Delta X   Delta X     New X
                                 (Linear)    (Quad)   (Total)
    R1        2.89624  -0.00160  -0.00187   0.00017  -0.00169   2.89454
    R2        2.06864  -0.00021  -0.00009  -0.00032  -0.00041   2.06823
    R3        2.07133  -0.00041  -0.00026  -0.00037  -0.00063   2.07070
    R4        2.07054   0.00029  -0.00020   0.00129   0.00109   2.07163
    R5        2.91613   0.00011  -0.00267   0.00738   0.00471   2.92084
    R6        2.07561   0.00044  -0.00033   0.00202   0.00169   2.07730
    R7        2.07530  -0.00060  -0.00030  -0.00078  -0.00109   2.07421
    R8        2.82557  -0.00083  -0.00082  -0.00006  -0.00088   2.82469
    R9        2.07762  -0.00077  -0.00046  -0.00081  -0.00127   2.07635
   R10        2.06731   0.00057   0.00049   0.00019   0.00068   2.06799
   R11        2.49764  -0.00105  -0.00124   0.00178   0.00054   2.49818
   R12        2.59807  -0.00025  -0.00013   0.00013  -0.00001   2.59806
   R13        2.59786  -0.00110  -0.00064  -0.00048  -0.00111   2.59675
   R14        2.61313  -0.00127  -0.00059  -0.00092  -0.00150   2.61162
   R15        2.04338  -0.00030   0.00019  -0.00126  -0.00106   2.04232
   R16        2.62386  -0.00055  -0.00297   0.00699   0.00402   2.62788
   R17        2.72861  -0.00012  -0.00345   0.00883   0.00538   2.73399
   R18        1.90774   0.00003  -0.00016   0.00048   0.00032   1.90805
   R19        2.63090  -0.00245  -0.00245   0.00202  -0.00044   2.63046
   R20        2.58924  -0.00068   0.00005  -0.00126  -0.00126   2.58798
   R21        2.66507   0.00005  -0.00065   0.00177   0.00116   2.66623
   R22        2.04016   0.00017   0.00020  -0.00011   0.00010   2.04026
   R23        2.52189  -0.00130  -0.00006  -0.00186  -0.00189   2.52000
   R24        2.04458  -0.00028   0.00013  -0.00106  -0.00093   2.04365
   R25        2.55471   0.00007  -0.00153   0.00416   0.00260   2.55731
   R26        1.90538  -0.00020   0.00080  -0.00251  -0.00171   1.90367
    A1        1.94505  -0.00057   0.00011  -0.00382  -0.00371   1.94135
    A2        1.93683  -0.00031  -0.00162   0.00339   0.00178   1.93861
    A3        1.93412   0.00014   0.00034  -0.00060  -0.00026   1.93385
    A4        1.88682   0.00058  -0.00067   0.00585   0.00520   1.89201
    A5        1.87457   0.00002   0.00178  -0.00626  -0.00448   1.87009
    A6        1.88394   0.00018   0.00010   0.00144   0.00154   1.88548
    A7        1.97495  -0.00066   0.00000  -0.00309  -0.00307   1.97188
    A8        1.90938   0.00041  -0.00022   0.00538   0.00516   1.91453
    A9        1.91699   0.00047  -0.00271   0.00873   0.00602   1.92300
   A10        1.90430   0.00018   0.00246  -0.00501  -0.00254   1.90176
   A11        1.89859  -0.00030  -0.00049  -0.00437  -0.00484   1.89375
   A12        1.85580  -0.00008   0.00099  -0.00169  -0.00073   1.85507
   A13        1.97845  -0.00033  -0.00113   0.00091  -0.00020   1.97825
   A14        1.91582  -0.00024  -0.00139   0.00049  -0.00087   1.91494
   A15        1.91126   0.00028   0.00085   0.00039   0.00125   1.91251
   A16        1.91504   0.00015  -0.00126   0.00228   0.00105   1.91609
   A17        1.87347   0.00001   0.00366  -0.00896  -0.00530   1.86817
   A18        1.86606   0.00016  -0.00068   0.00498   0.00429   1.87034
   A19        2.21791  -0.00189  -0.00070  -0.00530  -0.00595   2.21196
   A20        2.14016   0.00002  -0.00003  -0.00025  -0.00024   2.13992
   A21        1.92410   0.00187   0.00083   0.00488   0.00567   1.92977
   A22        1.85888  -0.00232  -0.00161  -0.00459  -0.00624   1.85264
   A23        1.93200   0.00219   0.00111   0.00515   0.00608   1.93809
   A24        2.12394  -0.00090  -0.00152   0.00099  -0.00068   2.12326
   A25        2.22724  -0.00129   0.00041  -0.00627  -0.00601   2.22123
   A26        1.82026  -0.00076  -0.00040  -0.00168  -0.00211   1.81815
   A27        2.28188   0.00199  -0.00059   0.00866   0.00809   2.28998
   A28        2.18104  -0.00123   0.00098  -0.00699  -0.00599   2.17505
   A29        1.88938  -0.00096   0.00008  -0.00333  -0.00331   1.88607
   A30        2.18191   0.00113  -0.00038   0.00594   0.00558   2.18749
   A31        2.20996  -0.00018   0.00043  -0.00343  -0.00298   2.20698
   A32        2.27898   0.00028  -0.00126   0.00429   0.00306   2.28203
   A33        2.17244  -0.00059   0.00117  -0.00524  -0.00404   2.16841
   A34        1.83176   0.00032   0.00007   0.00098   0.00087   1.83264
   A35        1.83986  -0.00147  -0.00040  -0.00508  -0.00562   1.83424
   A36        2.21189  -0.00013   0.00095  -0.00427  -0.00337   2.20851
   A37        2.23143   0.00159  -0.00055   0.00926   0.00865   2.24008
   A38        1.95048   0.00267   0.00096   0.00803   0.00897   1.95945
   A39        2.24456  -0.00128  -0.00010  -0.00467  -0.00476   2.23980
[...]
   166    N    8  py     Ryd( 4p)     0.00131       1.36021
   167    N    8  py     Ryd( 5p)     0.00002       4.14419
   168    N    8  pz     Val( 2p)     0.78079      -0.15455
   169    N    8  pz     Ryd( 3p)     0.00143       0.48490
   170    N    8  pz     Ryd( 4p)     0.00046       0.90384
   171    N    8  pz     Ryd( 5p)     0.00001       3.93974
   172    N    8  dxy    Ryd( 3d)     0.00043       3.14772
   173    N    8  dxz    Ryd( 3d)     0.00031       2.37241
   174    N    8  dyz    Ryd( 3d)     0.00021       2.40294
   175    N    8  dx2y2  Ryd( 3d)     0.00046       3.00545
   176    N    8  dz2    Ryd( 3d)     0.00030       2.77004
 
   177    C    9  S      Cor( 1S)     0.99952      -9.98141
   178    C    9  S      Val( 2S)     0.41829      -0.03317
   179    C    9  S      Ryd( 3S)     0.00080       1.74663
   180    C    9  S      Ryd( 4S)     0.00132       3.49801
   181    C    9  S      Ryd( 5S)     0.00004      15.06781
   182    C    9  px     Val( 2p)     0.53146       0.04208
   183    C    9  px     Ryd( 3p)     0.00257       1.76192
   184    C    9  px     Ryd( 5p)     0.00043       5.47047
   185    C    9  px     Ryd( 4p)     0.00004       2.26807
   186    C    9  py     Val( 2p)     0.46748       0.03123
   187    C    9  py     Ryd( 3p)     0.00293       1.09342
   188    C    9  py     Ryd( 4p)     0.00057       1.45602
   189    C    9  py     Ryd( 5p)     0.00004       2.66985
   190    C    9  pz     Val( 2p)     0.50847       0.00555
   191    C    9  pz     Ryd( 3p)     0.00120       1.00621
   192    C    9  pz     Ryd( 4p)     0.00067       1.52869
   193    C    9  pz     Ryd( 5p)     0.00004       2.64788
   194    C    9  dxy    Ryd( 3d)     0.00043       2.47997
   195    C    9  dxz    Ryd( 3d)     0.00054       2.34156
   196    C    9  dyz    Ryd( 3d)     0.00036       2.18611
   197    C    9  dx2y2  Ryd( 3d)     0.00060       2.44572
   198    C    9  dz2    Ryd( 3d)     0.00056       1.96713
 
   199    C   10  S      Cor( 1S)     0.99952      -9.92726
   200    C   10  S      Val( 2S)     0.47829      -0.07157
   201    C   10  S      Ryd( 4S)     0.00065       1.70736
   202    C   10  S      Ryd( 3S)     0.00037       1.24050
   203    C   10  S      Ryd( 5S)     0.00002      20.51224
   204    C   10  px     Val( 2p)     0.52187       0.03417
   205    C   10  px     Ryd( 4p)     0.00171       0.93996
   206    C   10  px     Ryd( 3p)     0.00004       0.55088
   207    C   10  px     Ryd( 5p)     0.00006       3.12214
   208    C   10  py     Val( 2p)     0.58153       0.01951
   209    C   10  py     Ryd( 4p)     0.00138       1.18414
   210    C   10  py     Ryd( 3p)     0.00012       0.59300
   211    C   10  py     Ryd( 5p)     0.00003       2.89310
   212    C   10  pz     Val( 2p)     0.56688       0.01294
   213    C   10  pz     Ryd( 4p)     0.00118       1.00764
   214    C   10  pz     Ryd( 3p)     0.00011       0.52986
   215    C   10  pz     Ryd( 5p)     0.00003       2.88285
   216    C   10  dxy    Ryd( 3d)     0.00032       2.42429
   217    C   10  dxz    Ryd( 3d)     0.00029       2.25318
   218    C   10  dyz    Ryd( 3d)     0.00029       2.40458
   219    C   10  dx2y2  Ryd( 3d)     0.00026       2.20316
   220    C   10  dz2    Ryd( 3d)     0.00031       1.97875
 
   221    C   11  S      Cor( 1S)     0.99964      -9.96180
   222    C   11  S      Val( 2S)     0.46443      -0.07628
   223    C   11  S      Ryd( 4S)     0.00169       0.98606
   224    C   11  S      Ryd( 3S)     0.00056       0.80767
   225    C   11  S      Ryd( 5S)     0.00002      22.30181
   226    C   11  px     Val( 2p)     0.56430       0.04103
   227    C   11  px     Ryd( 3p)     0.00255       1.27605
   228    C   11  px     Ryd( 4p)     0.00009       1.34465
   229    C   11  px     Ryd( 5p)     0.00003       2.02092
   230    C   11  py     Val( 2p)     0.47654       0.03370
   231    C   11  py     Ryd( 3p)     0.00367       0.85543
   232    C   11  py     Ryd( 4p)     0.00010       1.12674
   233    C   11  py     Ryd( 5p)     0.00002       2.30375
   234    C   11  pz     Val( 2p)     0.50080       0.01651
   235    C   11  pz     Ryd( 3p)     0.00239       0.89799
   236    C   11  pz     Ryd( 4p)     0.00011       1.12122
   237    C   11  pz     Ryd( 5p)     0.00001       2.16281
   238    C   11  dxy    Ryd( 3d)     0.00050       2.32942
   239    C   11  dxz    Ryd( 3d)     0.00058       2.14226
   240    C   11  dyz    Ryd( 3d)     0.00041       2.26586
   241    C   11  dx2y2  Ryd( 3d)     0.00064       2.31335
   242    C   11  dz2    Ryd( 3d)     0.00070       1.94420
 
   243    N   12  S      Cor( 1S)     0.99974     -14.05481
   244    N   12  S      Val( 2S)     0.71665      -0.43490
   245    N   12  S      Ryd( 4S)     0.00246       1.94873
   246    N   12  S      Ryd( 3S)     0.00025       1.73746
   247    N   12  S      Ryd( 5S)     0.00000      33.62832
   248    N   12  px     Val( 2p)     0.55972      -0.03878
   249    N   12  px     Ryd( 3p)     0.00259       1.12474
   250    N   12  px     Ryd( 4p)     0.00014       2.13192
   251    N   12  px     Ryd( 5p)     0.00002       3.59721
   252    N   12  py     Val( 2p)     0.72592      -0.10307
   253    N   12  py     Ryd( 4p)     0.00205       0.87986
   254    N   12  py     Ryd( 3p)     0.00030       0.74325
   255    N   12  py     Ryd( 5p)     0.00002       4.05582
   256    N   12  pz     Val( 2p)     0.63563      -0.08027
   257    N   12  pz     Ryd( 4p)     0.00198       0.90419
   258    N   12  pz     Ryd( 3p)     0.00031       0.78517
   259    N   12  pz     Ryd( 5p)     0.00001       3.95868
   260    N   12  dxy    Ryd( 3d)     0.00070       2.53204
   261    N   12  dxz    Ryd( 3d)     0.00055       2.52733
   262    N   12  dyz    Ryd( 3d)     0.00060       2.86942
   263    N   12  dx2y2  Ryd( 3d)     0.00097       2.81211
   264    N   12  dz2    Ryd( 3d)     0.00060       2.47050
 
   265    N   13  S      Cor( 1S)     0.99966     -14.11482
   266    N   13  S      Val( 2S)     0.60973      -0.43525
   267    N   13  S      Ryd( 3S)     0.00145       1.25447
   268    N   13  S      Ryd( 4S)     0.00039       1.69187
   269    N   13  S      Ryd( 5S)     0.00001      33.29456
   270    N   13  px     Val( 2p)     0.59801      -0.12648
   271    N   13  px     Ryd( 4p)     0.00221       1.23847
   272    N   13  px     Ryd( 3p)     0.00093       1.18684
   273    N   13  px     Ryd( 5p)     0.00002       3.73732
   274    N   13  py     Val( 2p)     0.71150      -0.15600
   275    N   13  py     Ryd( 3p)     0.00233       0.75817
   276    N   13  py     Ryd( 4p)     0.00116       0.92791
   277    N   13  py     Ryd( 5p)     0.00003       4.13272
   278    N   13  pz     Val( 2p)     0.72755      -0.15893
   279    N   13  pz     Ryd( 3p)     0.00218       0.81617
   280    N   13  pz     Ryd( 4p)     0.00057       0.97083
   281    N   13  pz     Ryd( 5p)     0.00002       3.97730
   282    N   13  dxy    Ryd( 3d)     0.00062       2.66902
   283    N   13  dxz    Ryd( 3d)     0.00065       2.61323
   284    N   13  dyz    Ryd( 3d)     0.00042       2.83825
   285    N   13  dx2y2  Ryd( 3d)     0.00056       2.77352
   286    N   13  dz2    Ryd( 3d)     0.00035       2.53593
 
   287    H   14  S      Val( 1S)     0.39824       0.14697
   288    H   14  S      Ryd( 2S)     0.00039       0.40136
   289    H   14  S      Ryd( 4S)     0.00026       1.65946
   290    H   14  S      Ryd( 3S)     0.00004       1.25163
   291    H   14  px     Ryd( 2p)     0.00012       2.53053
   292    H   14  py     Ryd( 2p)     0.00008       2.04972
   293    H   14  pz     Ryd( 2p)     0.00007       2.03032
 
   294    H   15  S      Val( 1S)     0.40229       0.13665
   295    H   15  S      Ryd( 2S)     0.00017       0.38530
   296    H   15  S      Ryd( 3S)     0.00029       1.08459
   297    H   15  S      Ryd( 4S)     0.00003       1.67610
   298    H   15  px     Ryd( 2p)     0.00006       1.98332
   299    H   15  py     Ryd( 2p)     0.00011       2.10690
   300    H   15  pz     Ryd( 2p)     0.00010       2.39291
 
   301    H   16  S      Val( 1S)     0.40462       0.13591
   302    H   16  S      Ryd( 2S)     0.00023       0.45517
   303    H   16  S      Ryd( 4S)     0.00033       1.47432
   304    H   16  S      Ryd( 3S)     0.00004       1.40191
   305    H   16  px     Ryd( 2p)     0.00009       2.31385
   306    H   16  py     Ryd( 2p)     0.00010       2.31082
   307    H   16  pz     Ryd( 2p)     0.00007       1.88578
 
   308    H   17  S      Val( 1S)     0.39935       0.13725
   309    H   17  S      Ryd( 2S)     0.00185       0.46940
   310    H   17  S      Ryd( 4S)     0.00045       1.80355
   311    H   17  S      Ryd( 3S)     0.00001       0.96778
   312    H   17  px     Ryd( 2p)     0.00010       2.28071
   313    H   17  py     Ryd( 2p)     0.00012       2.47428
   314    H   17  pz     Ryd( 2p)     0.00008       1.94790
 
   315    H   18  S      Val( 1S)     0.40215       0.13835
   316    H   18  S      Ryd( 2S)     0.00087       0.36649
   317    H   18  S      Ryd( 4S)     0.00040       1.67222
   318    H   18  S      Ryd( 3S)     0.00002       1.20811
   319    H   18  px     Ryd( 2p)     0.00013       2.61431
   320    H   18  py     Ryd( 2p)     0.00010       2.12153
   321    H   18  pz     Ryd( 2p)     0.00008       1.93845
 
   322    H   19  S      Val( 1S)     0.38539       0.13863
   323    H   19  S      Ryd( 2S)     0.00189       0.34928
   324    H   19  S      Ryd( 4S)     0.00035       1.55201
   325    H   19  S      Ryd( 3S)     0.00002       1.33530
   326    H   19  px     Ryd( 2p)     0.00007       1.95793
   327    H   19  py     Ryd( 2p)     0.00008       2.28861
   328    H   19  pz     Ryd( 2p)     0.00012       2.49030
 
   329    H   20  S      Val( 1S)     0.39151       0.14407
   330    H   20  S      Ryd( 2S)     0.00075       0.49588
   331    H   20  S      Ryd( 4S)     0.00041       1.84423
   332    H   20  S      Ryd( 3S)     0.00001       1.11458
   333    H   20  px     Ryd( 2p)     0.00009       2.31106
   334    H   20  py     Ryd( 2p)     0.00010       2.38171
   335    H   20  pz     Ryd( 2p)     0.00007       2.01741
 
   336    H   21  S      Val( 1S)     0.40384       0.13772
   337    H   21  S      Ryd( 2S)     0.00019       0.62601
   338    H   21  S      Ryd( 3S)     0.00027       1.29546
   339    H   21  S      Ryd( 4S)     0.00004       1.47341
   340    H   21  px     Ryd( 2p)     0.00009       2.21032
   341    H   21  py     Ryd( 2p)     0.00023       2.76424
   342    H   21  pz     Ryd( 2p)     0.00013       1.74181
 
   343    H   22  S      Val( 1S)     0.26735       0.13493
   344    H   22  S      Ryd( 2S)     0.01468       0.51829
   345    H   22  S      Ryd( 3S)     0.00061       1.27927
   346    H   22  S      Ryd( 4S)     0.00030       2.09200
   347    H   22  px     Ryd( 2p)     0.00006       2.08218
   348    H   22  py     Ryd( 2p)     0.00026       2.87270
   349    H   22  pz     Ryd( 2p)     0.00023       1.77288
 
   350    H   23  S      Val( 1S)     0.39148       0.14491
   351    H   23  S      Ryd( 2S)     0.00013       0.58142
   352    H   23  S      Ryd( 4S)     0.00021       1.39012
   353    H   23  S      Ryd( 3S)     0.00003       1.33682
   354    H   23  px     Ryd( 2p)     0.00006       2.00532
   355    H   23  py     Ryd( 2p)     0.00018       2.44211
   356    H   23  pz     Ryd( 2p)     0.00015       2.22139
 
   357    H   24  S      Val( 1S)     0.40459       0.12881
   358    H   24  S      Ryd( 2S)     0.00009       0.49942
   359    H   24  S      Ryd( 3S)     0.00021       1.29851
   360    H   24  S      Ryd( 4S)     0.00004       1.44431
   361    H   24  px     Ryd( 2p)     0.00024       2.67438
   362    H   24  py     Ryd( 2p)     0.00006       1.91241
   363    H   24  pz     Ryd( 2p)     0.00012       2.00944
 
   364    H   25  S      Val( 1S)     0.28397       0.14174
   365    H   25  S      Ryd( 2S)     0.00766       0.32743
   366    H   25  S      Ryd( 3S)     0.00049       0.91481
   367    H   25  S      Ryd( 4S)     0.00029       2.51260
   368    H   25  px     Ryd( 2p)     0.00009       2.12633
   369    H   25  py     Ryd( 2p)     0.00021       2.11375
   370    H   25  pz     Ryd( 2p)     0.00033       2.42195

 WARNING:  Population inversion found on atom  C    1
           Population inversion found on atom  C    2
           Population inversion found on atom  C    3
           Population inversion found on atom  C    4
           Population inversion found on atom  N    5
           Population inversion found on atom  C    6
           Population inversion found on atom  C    7
           Population inversion found on atom  N    8
           Population inversion found on atom  C    9
           Population inversion found on atom  C   10
           Population inversion found on atom  C   11
           Population inversion found on atom  N   12
           Population inversion found on atom  N   13
           Population inversion found on atom  H   14
           Population inversion found on atom  H   15
           Population inversion found on atom  H   16
           Population inversion found on atom  H   17
           Population inversion found on atom  H   18
           Population inversion found on atom  H   19
           Population inversion found on atom  H   20
           Population inversion found on atom  H   21
           Population inversion found on atom  H   23
           Population inversion found on atom  H   24


 Summary of Natural Population Analysis:                  
                                                          
                                       Natural Population 
                Natural  -----------------------------------------------
    Atom  No    Charge         Core      Valence    Rydberg      Total
 -----------------------------------------------------------------------
      C    1   -0.28744      0.99966     2.28183    0.00595     3.28744
      C    2   -0.18477      0.99964     2.17696    0.00818     3.18477
      C    3   -0.21262      0.99959     2.20268    0.01035     3.21262
      C    4    0.20122      0.99961     1.77966    0.01950     2.79878
      N    5   -0.26219      0.99970     2.75377    0.00872     3.76219
      C    6   -0.01904      0.99953     2.00762    0.01189     3.01904
      C    7    0.03182      0.99950     1.95596    0.01272     2.96818
      N    8   -0.26881      0.99963     2.75837    0.01081     3.76881
      C    9    0.06164      0.99952     1.92570    0.01314     2.93836
      C   10   -0.15528      0.99952     2.14857    0.00718     3.15528
      C   11   -0.01980      0.99964     2.00608    0.01409     3.01980
      N   12   -0.15120      0.99974     2.63791    0.01354     3.65120
      N   13   -0.16034      0.99966     2.64678    0.01389     3.66034
      H   14    0.10081      0.00000     0.39824    0.00095     0.39919
      H   15    0.09695      0.00000     0.40229    0.00076     0.40305
      H   16    0.09453      0.00000     0.40462    0.00085     0.40547
      H   17    0.09803      0.00000     0.39935    0.00261     0.40197
      H   18    0.09625      0.00000     0.40215    0.00160     0.40375
      H   19    0.11209      0.00000     0.38539    0.00252     0.38791
      H   20    0.10705      0.00000     0.39151    0.00144     0.39295
      H   21    0.09521      0.00000     0.40384    0.00095     0.40479
      H   22    0.21651      0.00000     0.26735    0.01614     0.28349
      H   23    0.10776      0.00000     0.39148    0.00076     0.39224
      H   24    0.09465      0.00000     0.40459    0.00076     0.40535
      H   25    0.20698      0.00000     0.28397    0.00906     0.29302
 =======================================================================
   * Total *   -0.00000     12.99494    33.81669    0.18837    47.00000

                                 Natural Population      
 --------------------------------------------------------
   Core                      12.99494 ( 99.9611% of  13)
   Valence                   33.81669 ( 99.4608% of  34)
   Natural Minimal Basis     46.81163 ( 99.5992% of  47)
   Natural Rydberg Basis      0.18837 (  0.4008% of  47)
 --------------------------------------------------------

    Atom  No          Natural Electron Configuration
 ----------------------------------------------------------------------------
      C    1      [core]2S( 0.54)2p( 1.74)
      C    2      [core]2S( 0.51)2p( 1.66)
      C    3      [core]2S( 0.51)2p( 1.69)
      C    4      [core]2S( 0.40)2p( 1.38)3p( 0.01)
      N    5      [core]2S( 0.70)2p( 2.05)
      C    6      [core]2S( 0.46)2p( 1.55)4p( 0.01)
      C    7      [core]2S( 0.42)2p( 1.54)
      N    8      [core]2S( 0.62)2p( 2.14)
      C    9      [core]2S( 0.42)2p( 1.51)3p( 0.01)
      C   10      [core]2S( 0.48)2p( 1.67)
      C   11      [core]2S( 0.46)2p( 1.54)3p( 0.01)
      N   12      [core]2S( 0.72)2p( 1.92)
      N   13      [core]2S( 0.61)2p( 2.04)3p( 0.01)
      H   14            1S( 0.40)
      H   15            1S( 0.40)
      H   16            1S( 0.40)
      H   17            1S( 0.40)
      H   18            1S( 0.40)
      H   19            1S( 0.39)
      H   20            1S( 0.39)
      H   21            1S( 0.40)
      H   22            1S( 0.27)2S( 0.01)
      H   23            1S( 0.39)
      H   24            1S( 0.40)
      H   25            1S( 0.28)2S( 0.01)


 NBO analysis skipped by request.
 1\1\GINC-NODE204\SP\UB3LYP\6-311++G(d,p)\C9H12N4(1-,2)\VSC10255\09-Dec
 -2020\0\\# B3LYP/6-311++G(d,p) empiricaldispersion=gd3bj scf=xqc pop=n
 pa geom=check\\CID_137096263_JID_3116_Energie_anion\\-1,2\C,0,0.754275
 5287,-0.1946099306,0.1119232494\C,0,1.2185520374,-1.6389848888,-0.0829
 925328\C,0,2.2140296735,-2.1030070178,1.0010814569\C,0,1.6450522589,-2
 .061260237,2.3824984845\N,0,1.9813919444,-1.2194675626,3.3435504861\C,
 0,1.1630900524,-1.5109054331,4.4100788178\C,0,0.3050550961,-2.54608839
 98,4.1052926691\N,0,0.639110352,-2.8974477212,2.8013104273\C,0,-0.7220
 013149,-3.2191401832,4.8690475616\C,0,-1.615269202,-2.7558119542,5.825
 608311\C,0,-2.3644152323,-3.8905777561,6.2062390321\N,0,-1.9864827555,
 -4.9874108358,5.5500866979\N,0,-0.9974227297,-4.5540639829,4.734667014
 3\H,0,0.2579140763,-0.0647187563,1.0793103564\H,0,0.0532478648,0.10383
 74278,-0.6748900462\H,0,1.6058707139,0.4949455227,0.0875637091\H,0,0.3
 478192101,-2.3103617698,-0.0917685045\H,0,1.6981487265,-1.7507700794,-
 1.0633846068\H,0,2.5628072095,-3.1183323795,0.7676583275\H,0,3.0927670
 982,-1.4510204765,1.0019178715\H,0,1.2450677526,-0.983632794,5.3504054
 66\H,0,0.1217212344,-3.5399127187,2.2183240759\H,0,-1.7211847372,-1.73
 5725609,6.1631137866\H,0,-3.1711136148,-3.9518709834,6.9246155838\H,0,
 -0.4578212435,-5.2379914809,4.2257223054\\Version=ES64L-G16RevA.03\Sta
 te=2-A\HF=-569.3712146\S2=0.750196\S2-1=0.\S2A=0.75\RMSD=3.747e-09\Dip
 ole=-0.401937,1.9212377,1.8548451\Quadrupole=7.1837095,-0.8255653,-6.3
 581442,-7.2519126,7.4910083,3.914287\PG=C01 [X(C9H12N4)]\\@


 I (ERNEST RUTHERFORD) CAME INTO THE ROOM, WHICH WAS HALF DARK, AND PRESENTLY
 SPOTTED LORD KELVIN IN THE AUDIENCE AND REALIZED I WAS IN TROUBLE AT
 THE LAST PART OF MY SPEECH DEALING THE AGE OF THE EARTH, WHERE MY VIEWS
 CONFLICTED WITH HIS.  TO MY RELIEF KELVIN FELL FAST ASLEEP, BUT AS I CAME
 TO THE IMPORTANT POINT, I SAW THE OLD BIRD SIT UP AND COCK A BALEFUL GLANCE
 AT ME! THEN A SUDDEN INSPIRATION CAME AND I SAID LORD KELVIN HAD LIMITED
 THE AGE OF THE EARTH PROVIDED NO NEW SOURCE WAS DISCOVERED. THAT
 PROPHETIC UTTERANCE REFERS TO WHAT WE ARE NOW CONSIDERING TONIGHT, RADIUM!
 BEHOLD!  THE OLD BOY BEAMED UPON ME.
 Job cpu time:       0 days  0 hours 26 minutes 32.6 seconds.
 Elapsed time:       0 days  0 hours  6 minutes 45.0 seconds.
 File lengths (MBytes):  RWF=    184 Int=      0 D2E=      0 Chk=     20 Scr=      8
 Normal termination of Gaussian 16 at Wed Dec  9 22:46:26 2020.
