 Entering Gaussian System, Link 0=g16
 Initial command:
 /apps/brussel/CO7/broadwell/software/Gaussian/G16.A.03-intel-2017b/g16/l1.exe "/scratch/brussel/102/vsc10255/3558937[8883].master01.hydra.brussel.vsc/Gau-25418.inp" -scrdir="/scratch/brussel/102/vsc10255/3558937[8883].master01.hydra.brussel.vsc/"
 Entering Link 1 = /apps/brussel/CO7/broadwell/software/Gaussian/G16.A.03-intel-2017b/g16/l1.exe.bin PID=     25419.
  
 Copyright (c) 1988,1990,1992,1993,1995,1998,2003,2009,2016,
            Gaussian, Inc.  All Rights Reserved.
  
 This is part of the Gaussian(R) 16 program.  It is based on
 the Gaussian(R) 09 system (copyright 2009, Gaussian, Inc.),
 the Gaussian(R) 03 system (copyright 2003, Gaussian, Inc.),
 the Gaussian(R) 98 system (copyright 1998, Gaussian, Inc.),
 the Gaussian(R) 94 system (copyright 1995, Gaussian, Inc.),
 the Gaussian 92(TM) system (copyright 1992, Gaussian, Inc.),
 the Gaussian 90(TM) system (copyright 1990, Gaussian, Inc.),
 the Gaussian 88(TM) system (copyright 1988, Gaussian, Inc.),
 the Gaussian 86(TM) system (copyright 1986, Carnegie Mellon
 University), and the Gaussian 82(TM) system (copyright 1983,
 Carnegie Mellon University). Gaussian is a federally registered
 trademark of Gaussian, Inc.
  
 This software contains proprietary and confidential information,
 including trade secrets, belonging to Gaussian, Inc.
  
 This software is provided under written license and may be
 used, copied, transmitted, or stored only in accord with that
 written license.
  
 The following legend is applicable only to US Government
 contracts under FAR:
  
                    RESTRICTED RIGHTS LEGEND
  
 Use, reproduction and disclosure by the US Government is
 subject to restrictions as set forth in subparagraphs (a)
 and (c) of the Commercial Computer Software - Restricted
 Rights clause in FAR 52.227-19.
  
 Gaussian, Inc.
 340 Quinnipiac St., Bldg. 40, Wallingford CT 06492
  
  
 ---------------------------------------------------------------
 Warning -- This program may not be used in any manner that
 competes with the business of Gaussian, Inc. or will provide
 assistance to any competitor of Gaussian, Inc.  The licensee
 of this program is prohibited from giving any competitor of
 Gaussian, Inc. access to this program.  By using this program,
 the user acknowledges that Gaussian, Inc. is engaged in the
 business of creating and licensing software in the field of
 computational chemistry and represents and warrants to the
 licensee that it is not a competitor of Gaussian, Inc. and that
 it will not use this program in any manner prohibited above.
 ---------------------------------------------------------------
  

 Cite this work as:
 Gaussian 16, Revision A.03,
 M. J. Frisch, G. W. Trucks, H. B. Schlegel, G. E. Scuseria, 
 M. A. Robb, J. R. Cheeseman, G. Scalmani, V. Barone, 
 G. A. Petersson, H. Nakatsuji, X. Li, M. Caricato, A. V. Marenich, 
 J. Bloino, B. G. Janesko, R. Gomperts, B. Mennucci, H. P. Hratchian, 
 J. V. Ortiz, A. F. Izmaylov, J. L. Sonnenberg, D. Williams-Young, 
 F. Ding, F. Lipparini, F. Egidi, J. Goings, B. Peng, A. Petrone, 
 T. Henderson, D. Ranasinghe, V. G. Zakrzewski, J. Gao, N. Rega, 
 G. Zheng, W. Liang, M. Hada, M. Ehara, K. Toyota, R. Fukuda, 
 J. Hasegawa, M. Ishida, T. Nakajima, Y. Honda, O. Kitao, H. Nakai, 
 T. Vreven, K. Throssell, J. A. Montgomery, Jr., J. E. Peralta, 
 F. Ogliaro, M. J. Bearpark, J. J. Heyd, E. N. Brothers, K. N. Kudin, 
 V. N. Staroverov, T. A. Keith, R. Kobayashi, J. Normand, 
 K. Raghavachari, A. P. Rendell, J. C. Burant, S. S. Iyengar, 
 J. Tomasi, M. Cossi, J. M. Millam, M. Klene, C. Adamo, R. Cammi, 
 J. W. Ochterski, R. L. Martin, K. Morokuma, O. Farkas, 
 J. B. Foresman, and D. J. Fox, Gaussian, Inc., Wallingford CT, 2016.
 
 ******************************************
 Gaussian 16:  ES64L-G16RevA.03 25-Dec-2016
                11-Dec-2020 
 ******************************************
 %chk=JID_8883.chk
 %mem=8GB
 %nprocshared=4
 Will use up to    4 processors via shared memory.
 -----------------------------------------------------------
 # opt freq B3LYP/6-31G(d) empiricaldispersion=gd3bj scf=xqc
 -----------------------------------------------------------
 1/18=20,19=15,26=3,38=1/1,3;
 2/9=110,12=2,17=6,18=5,40=1/2;
 3/5=1,6=6,7=1,11=2,25=1,30=1,71=1,74=-5,124=41/1,2,3;
 4//1;
 5/5=2,8=3,13=1,38=5/2,8;
 6/7=2,8=2,9=2,10=2,28=1/1;
 7//1,2,3,16;
 1/18=20,19=15,26=3/3(2);
 2/9=110/2;
 99//99;
 2/9=110/2;
 3/5=1,6=6,7=1,11=2,25=1,30=1,71=1,74=-5,124=41/1,2,3;
 4/5=5,16=3,69=1/1;
 5/5=2,8=3,13=1,38=5/2,8;
 7//1,2,3,16;
 1/18=20,19=15,26=3/3(-5);
 2/9=110/2;
 6/7=2,8=2,9=2,10=2,19=2,28=1/1;
 99/9=1/99;
 ------------------------------
 CID_11345876_JID_8883_neutraal
 ------------------------------
 Symbolic Z-matrix:
 Charge =  0 Multiplicity = 1
 C                     0.94573  -0.08199   0.01824 
 C                     0.57608  -0.26279   1.50458 
 C                    -0.00027   1.07833   2.11146 
 C                    -1.40307   1.29945   1.62242 
 C                    -2.1658    0.28088   1.19761 
 C                    -1.71524  -1.16258   1.20525 
 O                    -0.36402  -1.35358   1.65654 
 C                    -1.87749  -1.79674  -0.18133 
 C                    -2.58583  -1.94213   2.20176 
 O                    -0.08507   1.04875   3.54893 
 C                     0.81791   2.05315   4.00604 
 C                     0.88723   3.03039   2.86722 
 O                     0.8021    2.20288   1.70936 
 C                     1.8362   -0.70777   2.30616 
 C                     2.47058  -2.03277   1.85984 
 C                     3.48244  -1.86392   0.75999 
 O                     4.14177  -0.86949   0.50972 
 O                     3.65707  -2.99467   0.04895 
 H                     0.14393   0.40148  -0.54823 
 H                     1.1247   -1.04644  -0.46813 
 H                     1.83635   0.54379  -0.10058 
 H                    -1.79804   2.30865   1.63867 
 H                    -3.17998   0.48458   0.86271 
 H                    -1.47954  -2.81814  -0.18996 
 H                    -2.92909  -1.83349  -0.48781 
 H                    -1.33311  -1.24614  -0.95354 
 H                    -2.4632   -1.54962   3.21874 
 H                    -3.64953  -1.8977    1.94273 
 H                    -2.28493  -2.99587   2.24171 
 H                     1.78947   1.58334   4.18967 
 H                     0.45972   2.49975   4.93702 
 H                     1.80867   3.61787   2.85655 
 H                     0.02935   3.71147   2.86805 
 H                     2.58379   0.09426   2.30727 
 H                     1.53313  -0.86443   3.3499 
 H                     3.01002  -2.47419   2.70635 
 H                     1.70437  -2.74805   1.54425 
 H                     4.34564  -2.7593   -0.60719 
 

 GradGradGradGradGradGradGradGradGradGradGradGradGradGradGradGradGradGrad
 Berny optimization.
 Initialization pass.
                           ----------------------------
                           !    Initial Parameters    !
                           ! (Angstroms and Degrees)  !
 --------------------------                            --------------------------
 ! Name  Definition              Value          Derivative Info.                !
 --------------------------------------------------------------------------------
 ! R1    R(1,2)                  1.5423         estimate D2E/DX2                !
 ! R2    R(1,19)                 1.0943         estimate D2E/DX2                !
 ! R3    R(1,20)                 1.0949         estimate D2E/DX2                !
 ! R4    R(1,21)                 1.095          estimate D2E/DX2                !
 ! R5    R(2,3)                  1.5808         estimate D2E/DX2                !
 ! R6    R(2,7)                  1.448          estimate D2E/DX2                !
 ! R7    R(2,14)                 1.5583         estimate D2E/DX2                !
 ! R8    R(3,4)                  1.502          estimate D2E/DX2                !
 ! R9    R(3,10)                 1.4403         estimate D2E/DX2                !
 ! R10   R(3,13)                 1.4388         estimate D2E/DX2                !
 ! R11   R(4,5)                  1.3415         estimate D2E/DX2                !
 ! R12   R(4,22)                 1.0839         estimate D2E/DX2                !
 ! R13   R(5,6)                  1.5122         estimate D2E/DX2                !
 ! R14   R(5,23)                 1.0873         estimate D2E/DX2                !
 ! R15   R(6,7)                  1.4373         estimate D2E/DX2                !
 ! R16   R(6,8)                  1.5333         estimate D2E/DX2                !
 ! R17   R(6,9)                  1.5358         estimate D2E/DX2                !
 ! R18   R(8,24)                 1.0962         estimate D2E/DX2                !
 ! R19   R(8,25)                 1.096          estimate D2E/DX2                !
 ! R20   R(8,26)                 1.0935         estimate D2E/DX2                !
 ! R21   R(9,27)                 1.097          estimate D2E/DX2                !
 ! R22   R(9,28)                 1.0957         estimate D2E/DX2                !
 ! R23   R(9,29)                 1.0966         estimate D2E/DX2                !
 ! R24   R(10,11)                1.4259         estimate D2E/DX2                !
 ! R25   R(11,12)                1.5022         estimate D2E/DX2                !
 ! R26   R(11,30)                1.0947         estimate D2E/DX2                !
 ! R27   R(11,31)                1.0929         estimate D2E/DX2                !
 ! R28   R(12,13)                1.4257         estimate D2E/DX2                !
 ! R29   R(12,32)                1.0928         estimate D2E/DX2                !
 ! R30   R(12,33)                1.0954         estimate D2E/DX2                !
 ! R31   R(14,15)                1.5353         estimate D2E/DX2                !
 ! R32   R(14,34)                1.0964         estimate D2E/DX2                !
 ! R33   R(14,35)                1.0981         estimate D2E/DX2                !
 ! R34   R(15,16)                1.504          estimate D2E/DX2                !
 ! R35   R(15,36)                1.0966         estimate D2E/DX2                !
 ! R36   R(15,37)                1.0947         estimate D2E/DX2                !
 ! R37   R(16,17)                1.2191         estimate D2E/DX2                !
 ! R38   R(16,18)                1.3471         estimate D2E/DX2                !
 ! R39   R(18,38)                0.9798         estimate D2E/DX2                !
 ! A1    A(2,1,19)             112.0282         estimate D2E/DX2                !
 ! A2    A(2,1,20)             111.3481         estimate D2E/DX2                !
 ! A3    A(2,1,21)             111.5021         estimate D2E/DX2                !
 ! A4    A(19,1,20)            106.1999         estimate D2E/DX2                !
 ! A5    A(19,1,21)            106.6962         estimate D2E/DX2                !
 ! A6    A(20,1,21)            108.8003         estimate D2E/DX2                !
 ! A7    A(1,2,3)              110.9718         estimate D2E/DX2                !
 ! A8    A(1,2,7)              110.1856         estimate D2E/DX2                !
 ! A9    A(1,2,14)             109.5964         estimate D2E/DX2                !
 ! A10   A(3,2,7)              111.2281         estimate D2E/DX2                !
 ! A11   A(3,2,14)             109.8518         estimate D2E/DX2                !
 ! A12   A(7,2,14)             104.8274         estimate D2E/DX2                !
 ! A13   A(2,3,4)              109.9019         estimate D2E/DX2                !
 ! A14   A(2,3,10)             112.7798         estimate D2E/DX2                !
 ! A15   A(2,3,13)             110.6382         estimate D2E/DX2                !
 ! A16   A(4,3,10)             105.8428         estimate D2E/DX2                !
 ! A17   A(4,3,13)             108.3481         estimate D2E/DX2                !
 ! A18   A(10,3,13)            109.1362         estimate D2E/DX2                !
 ! A19   A(3,4,5)              121.4893         estimate D2E/DX2                !
 ! A20   A(3,4,22)             118.1999         estimate D2E/DX2                !
 ! A21   A(5,4,22)             120.2995         estimate D2E/DX2                !
 ! A22   A(4,5,6)              123.6253         estimate D2E/DX2                !
 ! A23   A(4,5,23)             119.0525         estimate D2E/DX2                !
 ! A24   A(6,5,23)             117.2781         estimate D2E/DX2                !
 ! A25   A(5,6,7)              114.1131         estimate D2E/DX2                !
 ! A26   A(5,6,8)              111.0202         estimate D2E/DX2                !
 ! A27   A(5,6,9)              108.5966         estimate D2E/DX2                !
 ! A28   A(7,6,8)              109.1744         estimate D2E/DX2                !
 ! A29   A(7,6,9)              105.1726         estimate D2E/DX2                !
 ! A30   A(8,6,9)              108.4722         estimate D2E/DX2                !
 ! A31   A(2,7,6)              118.5084         estimate D2E/DX2                !
 ! A32   A(6,8,24)             110.736          estimate D2E/DX2                !
 ! A33   A(6,8,25)             111.6096         estimate D2E/DX2                !
 ! A34   A(6,8,26)             112.1887         estimate D2E/DX2                !
 ! A35   A(24,8,25)            108.3536         estimate D2E/DX2                !
 ! A36   A(24,8,26)            106.4311         estimate D2E/DX2                !
 ! A37   A(25,8,26)            107.282          estimate D2E/DX2                !
 ! A38   A(6,9,27)             110.8885         estimate D2E/DX2                !
 ! A39   A(6,9,28)             112.1072         estimate D2E/DX2                !
 ! A40   A(6,9,29)             110.8454         estimate D2E/DX2                !
 ! A41   A(27,9,28)            108.2514         estimate D2E/DX2                !
 ! A42   A(27,9,29)            106.2233         estimate D2E/DX2                !
 ! A43   A(28,9,29)            108.2983         estimate D2E/DX2                !
 ! A44   A(3,10,11)            105.5574         estimate D2E/DX2                !
 ! A45   A(10,11,12)           104.148          estimate D2E/DX2                !
 ! A46   A(10,11,30)           108.2708         estimate D2E/DX2                !
 ! A47   A(10,11,31)           110.6937         estimate D2E/DX2                !
 ! A48   A(12,11,30)           111.4318         estimate D2E/DX2                !
 ! A49   A(12,11,31)           113.2695         estimate D2E/DX2                !
 ! A50   A(30,11,31)           108.8657         estimate D2E/DX2                !
 ! A51   A(11,12,13)           103.611          estimate D2E/DX2                !
 ! A52   A(11,12,32)           113.3291         estimate D2E/DX2                !
 ! A53   A(11,12,33)           111.5781         estimate D2E/DX2                !
 ! A54   A(13,12,32)           110.7587         estimate D2E/DX2                !
 ! A55   A(13,12,33)           108.3454         estimate D2E/DX2                !
 ! A56   A(32,12,33)           109.0328         estimate D2E/DX2                !
 ! A57   A(3,13,12)            105.0692         estimate D2E/DX2                !
 ! A58   A(2,14,15)            115.5318         estimate D2E/DX2                !
 ! A59   A(2,14,34)            110.0599         estimate D2E/DX2                !
 ! A60   A(2,14,35)            107.8473         estimate D2E/DX2                !
 ! A61   A(15,14,34)           110.4781         estimate D2E/DX2                !
 ! A62   A(15,14,35)           105.4994         estimate D2E/DX2                !
 ! A63   A(34,14,35)           106.953          estimate D2E/DX2                !
 ! A64   A(14,15,16)           113.1834         estimate D2E/DX2                !
 ! A65   A(14,15,36)           109.0417         estimate D2E/DX2                !
 ! A66   A(14,15,37)           111.0083         estimate D2E/DX2                !
 ! A67   A(16,15,36)           106.1859         estimate D2E/DX2                !
 ! A68   A(16,15,37)           109.4776         estimate D2E/DX2                !
 ! A69   A(36,15,37)           107.6893         estimate D2E/DX2                !
 ! A70   A(15,16,17)           127.2687         estimate D2E/DX2                !
 ! A71   A(15,16,18)           112.2699         estimate D2E/DX2                !
 ! A72   A(17,16,18)           120.4129         estimate D2E/DX2                !
 ! A73   A(16,18,38)           104.0594         estimate D2E/DX2                !
 ! D1    D(19,1,2,3)           -48.1552         estimate D2E/DX2                !
 ! D2    D(19,1,2,7)            75.491          estimate D2E/DX2                !
 ! D3    D(19,1,2,14)         -169.6553         estimate D2E/DX2                !
 ! D4    D(20,1,2,3)          -166.9235         estimate D2E/DX2                !
 ! D5    D(20,1,2,7)           -43.2773         estimate D2E/DX2                !
 ! D6    D(20,1,2,14)           71.5764         estimate D2E/DX2                !
 ! D7    D(21,1,2,3)            71.3496         estimate D2E/DX2                !
 ! D8    D(21,1,2,7)          -165.0042         estimate D2E/DX2                !
 ! D9    D(21,1,2,14)          -50.1504         estimate D2E/DX2                !
 ! D10   D(1,2,3,4)             74.8789         estimate D2E/DX2                !
 ! D11   D(1,2,3,10)          -167.2856         estimate D2E/DX2                !
 ! D12   D(1,2,3,13)           -44.7313         estimate D2E/DX2                !
 ! D13   D(7,2,3,4)            -48.1684         estimate D2E/DX2                !
 ! D14   D(7,2,3,10)            69.6671         estimate D2E/DX2                !
 ! D15   D(7,2,3,13)          -167.7787         estimate D2E/DX2                !
 ! D16   D(14,2,3,4)          -163.7709         estimate D2E/DX2                !
 ! D17   D(14,2,3,10)          -45.9354         estimate D2E/DX2                !
 ! D18   D(14,2,3,13)           76.6189         estimate D2E/DX2                !
 ! D19   D(1,2,7,6)            -71.8044         estimate D2E/DX2                !
 ! D20   D(3,2,7,6)             51.6927         estimate D2E/DX2                !
 ! D21   D(14,2,7,6)           170.3576         estimate D2E/DX2                !
 ! D22   D(1,2,14,15)          -60.1913         estimate D2E/DX2                !
 ! D23   D(1,2,14,34)           65.765          estimate D2E/DX2                !
 ! D24   D(1,2,14,35)         -177.896          estimate D2E/DX2                !
 ! D25   D(3,2,14,15)          177.6374         estimate D2E/DX2                !
 ! D26   D(3,2,14,34)          -56.4063         estimate D2E/DX2                !
 ! D27   D(3,2,14,35)           59.9327         estimate D2E/DX2                !
 ! D28   D(7,2,14,15)           58.047          estimate D2E/DX2                !
 ! D29   D(7,2,14,34)         -175.9967         estimate D2E/DX2                !
 ! D30   D(7,2,14,35)          -59.6577         estimate D2E/DX2                !
 ! D31   D(2,3,4,5)             23.3376         estimate D2E/DX2                !
 ! D32   D(2,3,4,22)          -157.8786         estimate D2E/DX2                !
 ! D33   D(10,3,4,5)           -98.7206         estimate D2E/DX2                !
 ! D34   D(10,3,4,22)           80.0633         estimate D2E/DX2                !
 ! D35   D(13,3,4,5)           144.335          estimate D2E/DX2                !
 ! D36   D(13,3,4,22)          -36.8812         estimate D2E/DX2                !
 ! D37   D(2,3,10,11)          115.7531         estimate D2E/DX2                !
 ! D38   D(4,3,10,11)         -124.0509         estimate D2E/DX2                !
 ! D39   D(13,3,10,11)          -7.6387         estimate D2E/DX2                !
 ! D40   D(2,3,13,12)         -139.8556         estimate D2E/DX2                !
 ! D41   D(4,3,13,12)           99.6037         estimate D2E/DX2                !
 ! D42   D(10,3,13,12)         -15.2008         estimate D2E/DX2                !
 ! D43   D(3,4,5,6)              1.7805         estimate D2E/DX2                !
 ! D44   D(3,4,5,23)           179.297          estimate D2E/DX2                !
 ! D45   D(22,4,5,6)          -176.9781         estimate D2E/DX2                !
 ! D46   D(22,4,5,23)            0.5384         estimate D2E/DX2                !
 ! D47   D(4,5,6,7)             -2.5777         estimate D2E/DX2                !
 ! D48   D(4,5,6,8)           -126.4604         estimate D2E/DX2                !
 ! D49   D(4,5,6,9)            114.3681         estimate D2E/DX2                !
 ! D50   D(23,5,6,7)           179.8649         estimate D2E/DX2                !
 ! D51   D(23,5,6,8)            55.9823         estimate D2E/DX2                !
 ! D52   D(23,5,6,9)           -63.1893         estimate D2E/DX2                !
 ! D53   D(5,6,7,2)            -25.9571         estimate D2E/DX2                !
 ! D54   D(8,6,7,2)             98.9128         estimate D2E/DX2                !
 ! D55   D(9,6,7,2)           -144.864          estimate D2E/DX2                !
 ! D56   D(5,6,8,24)           175.708          estimate D2E/DX2                !
 ! D57   D(5,6,8,25)           -63.4875         estimate D2E/DX2                !
 ! D58   D(5,6,8,26)            56.9536         estimate D2E/DX2                !
 ! D59   D(7,6,8,24)            49.0532         estimate D2E/DX2                !
 ! D60   D(7,6,8,25)           169.8577         estimate D2E/DX2                !
 ! D61   D(7,6,8,26)           -69.7012         estimate D2E/DX2                !
 ! D62   D(9,6,8,24)           -65.0458         estimate D2E/DX2                !
 ! D63   D(9,6,8,25)            55.7586         estimate D2E/DX2                !
 ! D64   D(9,6,8,26)           176.1998         estimate D2E/DX2                !
 ! D65   D(5,6,9,27)           -61.8862         estimate D2E/DX2                !
 ! D66   D(5,6,9,28)            59.2343         estimate D2E/DX2                !
 ! D67   D(5,6,9,29)          -179.6154         estimate D2E/DX2                !
 ! D68   D(7,6,9,27)            60.6517         estimate D2E/DX2                !
 ! D69   D(7,6,9,28)          -178.2278         estimate D2E/DX2                !
 ! D70   D(7,6,9,29)           -57.0776         estimate D2E/DX2                !
 ! D71   D(8,6,9,27)           177.3557         estimate D2E/DX2                !
 ! D72   D(8,6,9,28)           -61.5238         estimate D2E/DX2                !
 ! D73   D(8,6,9,29)            59.6264         estimate D2E/DX2                !
 ! D74   D(3,10,11,12)          26.1895         estimate D2E/DX2                !
 ! D75   D(3,10,11,30)         -92.4994         estimate D2E/DX2                !
 ! D76   D(3,10,11,31)         148.2444         estimate D2E/DX2                !
 ! D77   D(10,11,12,13)        -35.7833         estimate D2E/DX2                !
 ! D78   D(10,11,12,32)       -155.8869         estimate D2E/DX2                !
 ! D79   D(10,11,12,33)         80.5763         estimate D2E/DX2                !
 ! D80   D(30,11,12,13)         80.7221         estimate D2E/DX2                !
 ! D81   D(30,11,12,32)        -39.3816         estimate D2E/DX2                !
 ! D82   D(30,11,12,33)       -162.9183         estimate D2E/DX2                !
 ! D83   D(31,11,12,13)       -156.121          estimate D2E/DX2                !
 ! D84   D(31,11,12,32)         83.7754         estimate D2E/DX2                !
 ! D85   D(31,11,12,33)        -39.7613         estimate D2E/DX2                !
 ! D86   D(11,12,13,3)          30.6688         estimate D2E/DX2                !
 ! D87   D(32,12,13,3)         152.5068         estimate D2E/DX2                !
 ! D88   D(33,12,13,3)         -87.9479         estimate D2E/DX2                !
 ! D89   D(2,14,15,16)          87.66           estimate D2E/DX2                !
 ! D90   D(2,14,15,36)        -154.3961         estimate D2E/DX2                !
 ! D91   D(2,14,15,37)         -35.9145         estimate D2E/DX2                !
 ! D92   D(34,14,15,16)        -38.0825         estimate D2E/DX2                !
 ! D93   D(34,14,15,36)         79.8613         estimate D2E/DX2                !
 ! D94   D(34,14,15,37)       -161.6571         estimate D2E/DX2                !
 ! D95   D(35,14,15,16)       -153.3323         estimate D2E/DX2                !
 ! D96   D(35,14,15,36)        -35.3884         estimate D2E/DX2                !
 ! D97   D(35,14,15,37)         83.0932         estimate D2E/DX2                !
 ! D98   D(14,15,16,17)         25.6953         estimate D2E/DX2                !
 ! D99   D(14,15,16,18)       -156.8551         estimate D2E/DX2                !
 ! D100  D(36,15,16,17)        -93.9            estimate D2E/DX2                !
 ! D101  D(36,15,16,18)         83.5496         estimate D2E/DX2                !
 ! D102  D(37,15,16,17)        150.107          estimate D2E/DX2                !
 ! D103  D(37,15,16,18)        -32.4434         estimate D2E/DX2                !
 ! D104  D(15,16,18,38)       -178.5594         estimate D2E/DX2                !
 ! D105  D(17,16,18,38)         -0.9127         estimate D2E/DX2                !
 --------------------------------------------------------------------------------
 Trust Radius=3.00D-01 FncErr=1.00D-07 GrdErr=1.00D-06 EigMax=2.50D+02 EigMin=1.00D-04
 Number of steps in this run=    227 maximum allowed number of steps=    228.
 GradGradGradGradGradGradGradGradGradGradGradGradGradGradGradGradGradGrad

                          Input orientation:                          
 ---------------------------------------------------------------------
 Center     Atomic      Atomic             Coordinates (Angstroms)
 Number     Number       Type             X           Y           Z
 ---------------------------------------------------------------------
      1          6           0        0.945730   -0.081990    0.018240
      2          6           0        0.576080   -0.262790    1.504580
      3          6           0       -0.000270    1.078330    2.111460
      4          6           0       -1.403070    1.299450    1.622420
      5          6           0       -2.165800    0.280880    1.197610
      6          6           0       -1.715240   -1.162580    1.205250
      7          8           0       -0.364020   -1.353580    1.656540
      8          6           0       -1.877490   -1.796740   -0.181330
      9          6           0       -2.585830   -1.942130    2.201760
     10          8           0       -0.085070    1.048750    3.548930
     11          6           0        0.817910    2.053150    4.006040
     12          6           0        0.887230    3.030390    2.867220
     13          8           0        0.802100    2.202880    1.709360
     14          6           0        1.836200   -0.707770    2.306160
     15          6           0        2.470580   -2.032770    1.859840
     16          6           0        3.482440   -1.863920    0.759990
     17          8           0        4.141770   -0.869490    0.509720
     18          8           0        3.657070   -2.994670    0.048950
     19          1           0        0.143930    0.401480   -0.548230
     20          1           0        1.124700   -1.046440   -0.468130
     21          1           0        1.836350    0.543790   -0.100580
     22          1           0       -1.798040    2.308650    1.638670
     23          1           0       -3.179980    0.484580    0.862710
     24          1           0       -1.479540   -2.818140   -0.189960
     25          1           0       -2.929090   -1.833490   -0.487810
     26          1           0       -1.333110   -1.246140   -0.953540
     27          1           0       -2.463200   -1.549620    3.218740
     28          1           0       -3.649530   -1.897700    1.942730
     29          1           0       -2.284930   -2.995870    2.241710
     30          1           0        1.789470    1.583340    4.189670
     31          1           0        0.459720    2.499750    4.937020
     32          1           0        1.808670    3.617870    2.856550
     33          1           0        0.029350    3.711470    2.868050
     34          1           0        2.583790    0.094260    2.307270
     35          1           0        1.533130   -0.864430    3.349900
     36          1           0        3.010020   -2.474190    2.706350
     37          1           0        1.704370   -2.748050    1.544250
     38          1           0        4.345640   -2.759300   -0.607190
 ---------------------------------------------------------------------
                    Distance matrix (angstroms):
                    1          2          3          4          5
     1  C    0.000000
     2  C    1.542250   0.000000
     3  C    2.573486   1.580850   0.000000
     4  C    3.162061   2.524186   1.501966   0.000000
     5  C    3.347269   2.812066   2.482049   1.341531   0.000000
     6  C    3.107640   2.479792   2.963784   2.516560   1.512164
     7  O    2.452838   1.448000   2.500690   2.849449   2.475578
     8  C    3.309194   3.348925   4.128785   3.614551   2.510200
     9  C    4.549703   3.647454   3.976990   3.498914   2.475180
    10  O    3.847973   2.517265   1.440273   2.347640   3.232301
    11  C    4.525230   3.417508   2.282351   3.344019   4.464386
    12  C    4.219836   3.577518   2.273624   3.129082   4.434906
    13  O    2.846251   2.484461   1.438782   2.384642   3.572730
    14  C    2.533597   1.558345   2.569180   3.871602   4.268760
    15  C    3.085806   2.616901   3.980874   5.115195   5.223748
    16  C    3.187533   3.400729   4.755268   5.883783   6.057581
    17  O    3.328120   3.751263   4.849337   6.057033   6.448409
    18  O    3.979449   4.367439   5.849736   6.820579   6.778972
    19  H    1.094310   2.200463   2.748249   2.812700   2.897819
    20  H    1.094874   2.192413   3.526257   4.032768   3.919676
    21  H    1.094953   2.194400   2.924385   3.746144   4.215640
    22  H    3.983620   3.502389   2.229169   1.083859   2.107518
    23  H    4.249190   3.883110   3.467344   2.097280   1.087296
    24  H    3.662212   3.691457   4.761014   4.499457   3.464135
    25  H    4.282297   4.327000   4.879845   4.073956   2.809593
    26  H    2.737282   3.264098   4.071099   3.622222   2.766335
    27  H    4.900810   3.719072   3.768052   3.433557   2.743017
    28  H    5.302535   4.551998   4.711934   3.920580   2.739137
    29  H    4.885865   4.024732   4.672873   4.428428   3.441138
    30  H    4.570126   3.477099   2.788756   4.106541   5.127669
    31  H    5.576377   4.407586   3.196219   3.987139   5.079363
    32  H    4.742324   4.290294   3.205727   4.148906   5.448302
    33  H    4.832340   4.237063   2.739842   3.069407   4.402045
    34  H    2.820277   2.191505   2.772021   4.220966   4.881063
    35  H    3.472349   2.164052   2.767556   4.035819   4.430143
    36  H    4.148476   3.501229   4.694267   5.906829   6.054405
    37  H    3.164193   2.729676   4.227140   5.103386   4.926743
    38  H    4.372475   4.990162   6.403546   7.381889   7.409376
                    6          7          8          9         10
     6  C    0.000000
     7  O    1.437338   0.000000
     8  C    1.533326   2.421724   0.000000
     9  C    1.535792   2.362223   2.490382   0.000000
    10  O    3.611131   3.070854   5.022392   4.124807   0.000000
    11  C    4.960060   4.303826   6.294514   5.550057   1.425883
    12  C    5.207302   4.717051   6.343384   6.101716   2.310193
    13  O    4.232901   3.743132   5.172221   5.376024   2.345870
    14  C    3.745875   2.383284   4.600539   4.592265   2.884635
    15  C    4.325137   2.921915   4.809137   5.068768   4.345128
    16  C    5.263650   3.982399   5.442375   6.237685   5.384140
    17  O    5.905441   4.674578   6.129342   7.019555   5.548209
    18  O    5.792694   4.631057   5.667400   6.687020   6.527076
    19  H    2.996246   2.863435   3.008808   4.528415   4.154289
    20  H    3.298325   2.612440   3.107788   4.658176   4.689364
    21  H    4.150986   3.395455   4.390582   5.571018   4.155209
    22  H    3.499164   3.933022   4.491430   4.359680   2.858445
    23  H    2.230680   3.455232   2.826822   2.834606   4.136730
    24  H    2.177853   2.607467   1.096219   2.776976   5.556679
    25  H    2.188608   3.377593   1.095967   2.713562   5.717607
    26  H    2.193942   2.786251   1.093535   3.465491   5.205416
    27  H    2.182518   2.624015   3.458988   1.096973   3.537804
    28  H    2.196760   3.342536   2.768023   1.095686   4.895592
    29  H    2.181685   2.594116   2.734052   1.096588   4.786142
    30  H    5.360022   4.436188   6.631529   5.960199   2.051886
    31  H    5.662969   5.127207   7.079540   6.040473   2.080623
    32  H    6.164206   5.556611   7.220422   7.117161   3.265887
    33  H    5.437358   5.222761   6.578384   6.264687   2.750776
    34  H    4.612565   3.348025   5.447204   5.557246   3.094444
    35  H    3.903886   2.589578   4.997111   4.409705   2.513651
    36  H    5.128519   3.707022   5.717114   5.643690   4.764518
    37  H    3.784491   2.497077   4.088073   4.414481   4.651508
    38  H    6.524471   5.411231   6.311515   7.523513   7.169782
                   11         12         13         14         15
    11  C    0.000000
    12  C    1.502236   0.000000
    13  O    2.301610   1.425714   0.000000
    14  C    3.398409   3.897329   3.146016   0.000000
    15  C    4.902268   5.399759   4.554910   1.535339   0.000000
    16  C    5.742821   5.927040   4.962297   2.537209   1.504008
    17  O    5.640401   5.599902   4.693825   2.927286   2.443137
    18  O    7.014262   7.205276   6.158112   3.693302   2.369036
    19  H    4.891180   4.373667   2.962253   3.498822   4.139767
    20  H    5.451585   5.272712   3.924744   2.884028   2.864207
    21  H    4.492184   3.986458   2.664233   2.712711   3.299114
    22  H    3.537360   3.039888   2.603250   4.769909   6.092451
    23  H    5.322035   5.200135   4.418861   5.354186   6.265792
    24  H    6.827456   7.010938   5.833004   4.656008   4.519063
    25  H    7.024291   7.034050   5.919596   5.637509   5.891316
    26  H    6.333217   6.149539   4.852411   4.578211   4.796035
    27  H    4.936140   5.685547   5.198237   4.475081   5.140256
    28  H    6.310664   6.761874   6.056916   5.625055   6.122161
    29  H    6.183290   6.838836   6.069609   4.714156   4.867059
    30  H    1.094701   2.157977   2.740560   2.966307   4.355258
    31  H    1.092921   2.179086   3.259317   4.370847   5.835780
    32  H    2.179743   1.092840   2.081208   4.360602   5.775923
    33  H    2.160295   1.095367   2.053180   4.807298   6.322372
    34  H    3.137101   3.436964   2.824570   1.096423   2.176526
    35  H    3.074790   3.977410   3.554457   1.098083   2.112844
    36  H    5.195320   5.901908   5.267246   2.158297   1.096552
    37  H    5.467883   5.984007   5.035182   2.181886   1.094669
    38  H    7.542310   7.586345   6.522753   4.358173   3.182756
                   16         17         18         19         20
    16  C    0.000000
    17  O    1.219115   0.000000
    18  O    1.347097   2.227921   0.000000
    19  H    4.241359   4.326355   4.922663   0.000000
    20  H    2.781275   3.176510   3.236645   1.750656   0.000000
    21  H    3.040931   2.772145   3.982220   1.756396   1.780553
    22  H    6.787186   6.830552   7.772428   3.491572   4.923174
    23  H    7.064973   7.454269   7.714444   3.611930   4.758721
    24  H    5.141419   5.990485   5.145192   3.623529   3.162019
    25  H    6.531895   7.205652   6.709244   3.800289   4.129534
    26  H    5.148530   5.679552   5.381844   2.249572   2.513232
    27  H    6.441651   7.171262   7.042261   4.979355   5.169064
    28  H    7.229454   7.988435   7.627329   5.087381   5.415733
    29  H    6.061300   6.987400   6.333685   5.022461   4.771696
    30  H    5.149025   5.009164   6.449160   5.152892   5.390061
    31  H    6.754704   6.671601   8.019035   5.881363   6.498716
    32  H    6.103040   5.575605   7.417876   4.970820   5.768631
    33  H    6.888594   6.592337   8.128960   4.758165   5.913341
    34  H    2.652568   2.566574   3.974095   3.768445   3.336613
    35  H    3.392112   3.856378   4.466018   4.327565   3.844125
    36  H    2.093783   2.946371   2.784124   5.203484   3.958563
    37  H    2.135013   3.246561   2.471797   4.090597   2.698364
    38  H    1.848243   2.204639   0.979820   5.258172   3.650710
                   21         22         23         24         25
    21  H    0.000000
    22  H    4.398694   0.000000
    23  H    5.108327   2.416424   0.000000
    24  H    4.722890   5.452459   3.861032   0.000000
    25  H    5.339553   4.791504   2.694494   1.777483   0.000000
    26  H    3.738565   4.424053   3.115298   1.753762   1.763246
    27  H    5.821201   4.222003   3.194154   3.767753   3.746485
    28  H    6.342781   4.605849   2.657476   3.178747   2.535879
    29  H    5.916119   5.360844   3.849193   2.567734   3.035844
    30  H    4.414647   4.461379   6.080409   7.017165   7.471168
    31  H    5.576585   4.001639   5.823086   7.637186   7.725916
    32  H    4.265601   4.025624   6.219287   7.843199   7.959173
    33  H    4.702362   2.611251   4.973330   7.366409   7.124658
    34  H    2.560954   4.954895   5.954842   5.588281   6.474607
    35  H    3.739096   4.908507   5.497213   5.042199   5.964772
    36  H    4.285389   6.865343   7.104184   5.353790   6.773934
    37  H    3.682268   6.151911   5.896717   3.626249   5.141463
    38  H    4.178946   8.274830   8.325762   5.840399   7.334376
                   26         27         28         29         30
    26  H    0.000000
    27  H    4.333258   0.000000
    28  H    3.765463   1.776722   0.000000
    29  H    3.765254   1.754425   1.776935   0.000000
    30  H    6.648990   5.370600   6.837331   6.431520   0.000000
    31  H    7.207262   5.281415   6.722297   6.708177   1.779487
    32  H    6.931534   6.714388   7.813356   7.802381   2.432466
    33  H    6.406149   5.832226   6.771496   7.122963   3.061640
    34  H    5.269882   5.385650   6.554012   5.766943   2.528188
    35  H    5.184653   4.056765   5.468797   4.510954   2.600481
    36  H    5.810824   5.574362   6.727932   5.340837   4.489268
    37  H    4.209629   4.648526   5.435635   4.057386   5.076064
    38  H    5.887089   7.903250   8.436065   7.220572   6.957183
                   31         32         33         34         35
    31  H    0.000000
    32  H    2.719966   0.000000
    33  H    2.436005   1.781817   0.000000
    34  H    4.148932   3.649431   4.463614   0.000000
    35  H    3.871546   4.517779   4.840702   1.763533   0.000000
    36  H    6.018305   6.211199   6.868255   2.633984   2.277430
    37  H    6.371770   6.500611   6.803201   3.071531   2.614903
    38  H    8.572995   7.687783   8.519303   4.443084   5.211459
                   36         37         38
    36  H    0.000000
    37  H    1.769236   0.000000
    38  H    3.583953   3.406630   0.000000
 Stoichiometry    C13H20O5
 Framework group  C1[X(C13H20O5)]
 Deg. of freedom   108
 Full point group                 C1      NOp   1
 Largest Abelian subgroup         C1      NOp   1
 Largest concise Abelian subgroup C1      NOp   1
                         Standard orientation:                         
 ---------------------------------------------------------------------
 Center     Atomic      Atomic             Coordinates (Angstroms)
 Number     Number       Type             X           Y           Z
 ---------------------------------------------------------------------
      1          6           0       -0.703222    0.244135   -1.458252
      2          6           0       -0.061230    0.016336   -0.074601
      3          6           0        1.256600   -0.848103   -0.197719
      4          6           0        2.369391   -0.007297   -0.755072
      5          6           0        2.357873    1.329987   -0.649037
      6          6           0        1.269603    2.104438    0.059859
      7          8           0        0.203009    1.286338    0.568808
      8          6           0        0.682026    3.187746   -0.852438
      9          6           0        1.878052    2.785525    1.294593
     10          8           0        1.727895   -1.330685    1.074831
     11          6           0        1.627320   -2.751357    1.006156
     12          6           0        1.729998   -3.056230   -0.461231
     13          8           0        1.049023   -1.966472   -1.078774
     14          6           0       -1.079159   -0.701133    0.862148
     15          6           0       -2.389658    0.056374    1.119127
     16          6           0       -3.449203   -0.227507    0.090138
     17          8           0       -3.561282   -1.227928   -0.597494
     18          8           0       -4.364290    0.758156    0.014290
     19          1           0        0.028461    0.578284   -2.200209
     20          1           0       -1.473372    1.021268   -1.417226
     21          1           0       -1.150443   -0.675559   -1.849505
     22          1           0        3.201723   -0.510795   -1.233051
     23          1           0        3.189759    1.899159   -1.056741
     24          1           0       -0.156637    3.695362   -0.361859
     25          1           0        1.432217    3.940565   -1.120057
     26          1           0        0.289948    2.773796   -1.785572
     27          1           0        2.269675    2.041100    1.998733
     28          1           0        2.692540    3.468711    1.029274
     29          1           0        1.116418    3.353871    1.841769
     30          1           0        0.653004   -3.046301    1.408756
     31          1           0        2.413166   -3.223380    1.601234
     32          1           0        1.269831   -4.007813   -0.738780
     33          1           0        2.770957   -3.049959   -0.802104
     34          1           0       -1.286671   -1.710950    0.488847
     35          1           0       -0.607749   -0.814573    1.847385
     36          1           0       -2.805110   -0.263921    2.082058
     37          1           0       -2.214727    1.135541    1.174782
     38          1           0       -4.998186    0.442832   -0.663053
 ---------------------------------------------------------------------
 Rotational constants (GHZ):           0.5186068           0.3652404           0.2568515
 Standard basis: 6-31G(d) (6D, 7F)
 There are   310 symmetry adapted cartesian basis functions of A   symmetry.
 There are   310 symmetry adapted basis functions of A   symmetry.
   310 basis functions,   584 primitive gaussians,   310 cartesian basis functions
    69 alpha electrons       69 beta electrons
       nuclear repulsion energy      1504.2913011380 Hartrees.
 NAtoms=   38 NActive=   38 NUniq=   38 SFac= 1.00D+00 NAtFMM=   60 NAOKFM=F Big=F
 Integral buffers will be    131072 words long.
 Raffenetti 2 integral format.
 Two-electron integral symmetry is turned on.
 Nuclear repulsion after empirical dispersion term =     1504.2162230721 Hartrees.
 One-electron integrals computed using PRISM.
 NBasis=   310 RedAO= T EigKep=  1.03D-03  NBF=   310
 NBsUse=   310 1.00D-06 EigRej= -1.00D+00 NBFU=   310
 ExpMin= 1.61D-01 ExpMax= 5.48D+03 ExpMxC= 8.25D+02 IAcc=3 IRadAn=         5 AccDes= 0.00D+00
 Harris functional with IExCor=  402 and IRadAn=       5 diagonalized for initial guess.
 HarFok:  IExCor=  402 AccDes= 0.00D+00 IRadAn=         5 IDoV= 1 UseB2=F ITyADJ=14
 ICtDFT=  3500011 ScaDFX=  1.000000  1.000000  1.000000  1.000000
 FoFCou: FMM=F IPFlag=           0 FMFlag=      100000 FMFlg1=           0
         NFxFlg=           0 DoJE=T BraDBF=F KetDBF=T FulRan=T
         wScrn=  0.000000 ICntrl=       500 IOpCl=  0 I1Cent=   200000004 NGrid=           0
         NMat0=    1 NMatS0=      1 NMatT0=    0 NMatD0=    1 NMtDS0=    0 NMtDT0=    0
 Petite list used in FoFCou.
 Requested convergence on RMS density matrix=1.00D-08 within  32 cycles.
 Requested convergence on MAX density matrix=1.00D-06.
 Requested convergence on             energy=1.00D-06.
 No special actions if energy rises.
 Integral accuracy reduced to 1.0D-05 until final iterations.
 Initial convergence to 1.0D-05 achieved.  Increase integral accuracy.
 SCF Done:  E(RB3LYP) =  -883.587412553     A.U. after   14 cycles
            NFock= 14  Conv=0.71D-08     -V/T= 2.0092
 QCSCF skips out because SCF is already converged.

 **********************************************************************

            Population analysis using the SCF density.

 **********************************************************************

 Orbital symmetries:
       Occupied  (A) (A) (A) (A) (A) (A) (A) (A) (A) (A) (A) (A)
                 (A) (A) (A) (A) (A) (A) (A) (A) (A) (A) (A) (A)
                 (A) (A) (A) (A) (A) (A) (A) (A) (A) (A) (A) (A)
                 (A) (A) (A) (A) (A) (A) (A) (A) (A) (A) (A) (A)
                 (A) (A) (A) (A) (A) (A) (A) (A) (A) (A) (A) (A)
                 (A) (A) (A) (A) (A) (A) (A) (A) (A)
       Virtual   (A) (A) (A) (A) (A) (A) (A) (A) (A) (A) (A) (A)
                 (A) (A) (A) (A) (A) (A) (A) (A) (A) (A) (A) (A)
                 (A) (A) (A) (A) (A) (A) (A) (A) (A) (A) (A) (A)
                 (A) (A) (A) (A) (A) (A) (A) (A) (A) (A) (A) (A)
                 (A) (A) (A) (A) (A) (A) (A) (A) (A) (A) (A) (A)
                 (A) (A) (A) (A) (A) (A) (A) (A) (A) (A) (A) (A)
                 (A) (A) (A) (A) (A) (A) (A) (A) (A) (A) (A) (A)
                 (A) (A) (A) (A) (A) (A) (A) (A) (A) (A) (A) (A)
                 (A) (A) (A) (A) (A) (A) (A) (A) (A) (A) (A) (A)
                 (A) (A) (A) (A) (A) (A) (A) (A) (A) (A) (A) (A)
                 (A) (A) (A) (A) (A) (A) (A) (A) (A) (A) (A) (A)
                 (A) (A) (A) (A) (A) (A) (A) (A) (A) (A) (A) (A)
                 (A) (A) (A) (A) (A) (A) (A) (A) (A) (A) (A) (A)
                 (A) (A) (A) (A) (A) (A) (A) (A) (A) (A) (A) (A)
                 (A) (A) (A) (A) (A) (A) (A) (A) (A) (A) (A) (A)
                 (A) (A) (A) (A) (A) (A) (A) (A) (A) (A) (A) (A)
                 (A) (A) (A) (A) (A) (A) (A) (A) (A) (A) (A) (A)
                 (A) (A) (A) (A) (A) (A) (A) (A) (A) (A) (A) (A)
                 (A) (A) (A) (A) (A) (A) (A) (A) (A) (A) (A) (A)
                 (A) (A) (A) (A) (A) (A) (A) (A) (A) (A) (A) (A)
                 (A)
 The electronic state is 1-A.
 Alpha  occ. eigenvalues --  -19.19152 -19.16282 -19.15840 -19.14273 -19.13090
 Alpha  occ. eigenvalues --  -10.31317 -10.29072 -10.24610 -10.24575 -10.24144
 Alpha  occ. eigenvalues --  -10.23860 -10.19424 -10.18892 -10.18325 -10.18005
 Alpha  occ. eigenvalues --  -10.17140 -10.17067 -10.16384  -1.10257  -1.08909
 Alpha  occ. eigenvalues --   -1.02356  -1.00307  -0.99800  -0.81678  -0.80815
 Alpha  occ. eigenvalues --   -0.77708  -0.73945  -0.72718  -0.68473  -0.67189
 Alpha  occ. eigenvalues --   -0.64520  -0.63469  -0.60689  -0.59219  -0.56595
 Alpha  occ. eigenvalues --   -0.52530  -0.51922  -0.49504  -0.48592  -0.48397
 Alpha  occ. eigenvalues --   -0.47561  -0.47273  -0.46419  -0.44742  -0.43808
 Alpha  occ. eigenvalues --   -0.42753  -0.42387  -0.41422  -0.40977  -0.39898
 Alpha  occ. eigenvalues --   -0.39400  -0.38658  -0.38306  -0.38033  -0.37446
 Alpha  occ. eigenvalues --   -0.36045  -0.35773  -0.35084  -0.34818  -0.34517
 Alpha  occ. eigenvalues --   -0.33968  -0.32160  -0.30918  -0.30693  -0.28584
 Alpha  occ. eigenvalues --   -0.26863  -0.26309  -0.24703  -0.23678
 Alpha virt. eigenvalues --    0.01126   0.01429   0.07837   0.08280   0.09737
 Alpha virt. eigenvalues --    0.10301   0.11143   0.12247   0.12630   0.13076
 Alpha virt. eigenvalues --    0.14165   0.14555   0.14937   0.15759   0.16097
 Alpha virt. eigenvalues --    0.16733   0.17494   0.17750   0.18334   0.18939
 Alpha virt. eigenvalues --    0.19425   0.20495   0.20712   0.21176   0.22381
 Alpha virt. eigenvalues --    0.22486   0.22800   0.24061   0.24128   0.24451
 Alpha virt. eigenvalues --    0.24808   0.25972   0.26163   0.27652   0.28532
 Alpha virt. eigenvalues --    0.30120   0.32037   0.33067   0.36089   0.38772
 Alpha virt. eigenvalues --    0.44684   0.49243   0.50691   0.51786   0.52382
 Alpha virt. eigenvalues --    0.52813   0.53844   0.54507   0.54678   0.55114
 Alpha virt. eigenvalues --    0.56830   0.57261   0.58121   0.58783   0.60659
 Alpha virt. eigenvalues --    0.61610   0.61941   0.62546   0.62946   0.64121
 Alpha virt. eigenvalues --    0.64759   0.66203   0.67035   0.67815   0.69599
 Alpha virt. eigenvalues --    0.70306   0.71900   0.73134   0.73855   0.74841
 Alpha virt. eigenvalues --    0.77751   0.78303   0.78916   0.79838   0.80959
 Alpha virt. eigenvalues --    0.82195   0.82790   0.83699   0.84334   0.85513
 Alpha virt. eigenvalues --    0.85831   0.87477   0.87797   0.88867   0.90090
 Alpha virt. eigenvalues --    0.90690   0.90905   0.91074   0.91243   0.92100
 Alpha virt. eigenvalues --    0.92682   0.94044   0.94778   0.95530   0.96013
 Alpha virt. eigenvalues --    0.96609   0.97132   0.97661   0.98924   0.99953
 Alpha virt. eigenvalues --    1.01627   1.02337   1.03228   1.05322   1.07414
 Alpha virt. eigenvalues --    1.08187   1.09976   1.12113   1.12323   1.14044
 Alpha virt. eigenvalues --    1.15392   1.15976   1.17596   1.20729   1.21354
 Alpha virt. eigenvalues --    1.23212   1.26549   1.29591   1.30876   1.31427
 Alpha virt. eigenvalues --    1.33935   1.38409   1.38782   1.41066   1.41495
 Alpha virt. eigenvalues --    1.44223   1.47561   1.47839   1.51270   1.54467
 Alpha virt. eigenvalues --    1.56166   1.58980   1.59812   1.61174   1.62915
 Alpha virt. eigenvalues --    1.63839   1.66074   1.67989   1.68252   1.71586
 Alpha virt. eigenvalues --    1.71869   1.74612   1.75387   1.77205   1.77992
 Alpha virt. eigenvalues --    1.79747   1.81308   1.82488   1.82663   1.84119
 Alpha virt. eigenvalues --    1.85805   1.86329   1.86874   1.89726   1.90101
 Alpha virt. eigenvalues --    1.91168   1.92378   1.92893   1.93973   1.95943
 Alpha virt. eigenvalues --    1.97528   1.98349   1.98614   1.99917   2.01936
 Alpha virt. eigenvalues --    2.03927   2.05017   2.05421   2.06647   2.08379
 Alpha virt. eigenvalues --    2.10951   2.11772   2.12658   2.14888   2.15937
 Alpha virt. eigenvalues --    2.16442   2.19946   2.20661   2.22758   2.24446
 Alpha virt. eigenvalues --    2.25222   2.26734   2.27459   2.28542   2.29416
 Alpha virt. eigenvalues --    2.30478   2.32357   2.33723   2.36366   2.37635
 Alpha virt. eigenvalues --    2.38655   2.39987   2.44992   2.46437   2.46855
 Alpha virt. eigenvalues --    2.47145   2.48978   2.51559   2.53731   2.55930
 Alpha virt. eigenvalues --    2.58704   2.60003   2.63153   2.64438   2.65140
 Alpha virt. eigenvalues --    2.68058   2.69559   2.72813   2.73398   2.75689
 Alpha virt. eigenvalues --    2.77847   2.79876   2.81516   2.84282   2.86984
 Alpha virt. eigenvalues --    2.93725   2.95351   2.98803   3.04783   3.07738
 Alpha virt. eigenvalues --    3.10960   3.17297   3.18952   3.84674   3.94265
 Alpha virt. eigenvalues --    4.06592   4.14221   4.17433   4.21078   4.21980
 Alpha virt. eigenvalues --    4.23109   4.29579   4.31322   4.34866   4.41476
 Alpha virt. eigenvalues --    4.45775   4.56876   4.58257   4.64402   4.68852
 Alpha virt. eigenvalues --    4.87365
          Condensed to atoms (all electrons):
               1          2          3          4          5          6
     1  C    5.295372   0.329937  -0.059599  -0.008062  -0.007570  -0.002426
     2  C    0.329937   4.779943   0.338410  -0.061618  -0.010005  -0.011175
     3  C   -0.059599   0.338410   4.745138   0.369703  -0.021699  -0.028643
     4  C   -0.008062  -0.061618   0.369703   4.987929   0.624311  -0.027634
     5  C   -0.007570  -0.010005  -0.021699   0.624311   5.007485   0.370932
     6  C   -0.002426  -0.011175  -0.028643  -0.027634   0.370932   4.611663
     7  O   -0.058533   0.199992  -0.021933  -0.011534  -0.025816   0.201850
     8  C    0.001016  -0.003951   0.000751   0.000038  -0.065771   0.363254
     9  C   -0.000232   0.003443   0.000576  -0.002352  -0.060796   0.391848
    10  O    0.002679  -0.044247   0.189691  -0.058514  -0.001202   0.001129
    11  C    0.000098  -0.002529  -0.049819   0.005416  -0.000150  -0.000057
    12  C   -0.000274   0.006143  -0.046893  -0.004058  -0.000054  -0.000016
    13  O    0.000830  -0.046495   0.168010  -0.037732   0.003676   0.000319
    14  C   -0.064049   0.355809  -0.030458   0.005216   0.000404   0.004639
    15  C   -0.008124  -0.016340   0.003609  -0.000079  -0.000014   0.000113
    16  C    0.004810  -0.005354  -0.000052  -0.000003  -0.000000  -0.000009
    17  O   -0.000156  -0.001517  -0.000007   0.000000  -0.000000   0.000000
    18  O   -0.001038   0.000185  -0.000000  -0.000000  -0.000000   0.000000
    19  H    0.355764  -0.025137  -0.007920   0.008682   0.003941   0.001164
    20  H    0.354519  -0.019373   0.004055  -0.000081   0.000450  -0.001225
    21  H    0.350251  -0.017926  -0.001081   0.000511   0.000053  -0.000019
    22  H    0.000047   0.004131  -0.038337   0.352266  -0.036739   0.004578
    23  H   -0.000002  -0.000005   0.004791  -0.032936   0.346750  -0.042348
    24  H   -0.000199  -0.000040  -0.000019  -0.000051   0.005169  -0.023824
    25  H   -0.000023   0.000030  -0.000006   0.000088  -0.000140  -0.023831
    26  H    0.000745  -0.000228   0.000122   0.000306  -0.003891  -0.025648
    27  H    0.000043   0.000092   0.000012   0.001247  -0.002708  -0.025091
    28  H    0.000017  -0.000141  -0.000017   0.000328  -0.002779  -0.027785
    29  H   -0.000004  -0.000087   0.000002  -0.000032   0.005919  -0.024577
    30  H   -0.000119   0.002315  -0.000114  -0.000202  -0.000007   0.000002
    31  H    0.000006  -0.000350   0.006230  -0.000131  -0.000012   0.000001
    32  H   -0.000005   0.000181   0.005444  -0.000385   0.000010   0.000000
    33  H   -0.000031  -0.000184  -0.000151   0.002698  -0.000207   0.000002
    34  H   -0.002311  -0.025146  -0.003090   0.000221  -0.000018  -0.000114
    35  H    0.007134  -0.028264  -0.011264   0.000370  -0.000061  -0.000046
    36  H    0.000043   0.002483  -0.000030   0.000001   0.000000   0.000004
    37  H   -0.000472  -0.006703   0.000337  -0.000003   0.000041  -0.000551
    38  H    0.000012  -0.000004  -0.000000  -0.000000   0.000000  -0.000000
               7          8          9         10         11         12
     1  C   -0.058533   0.001016  -0.000232   0.002679   0.000098  -0.000274
     2  C    0.199992  -0.003951   0.003443  -0.044247  -0.002529   0.006143
     3  C   -0.021933   0.000751   0.000576   0.189691  -0.049819  -0.046893
     4  C   -0.011534   0.000038  -0.002352  -0.058514   0.005416  -0.004058
     5  C   -0.025816  -0.065771  -0.060796  -0.001202  -0.000150  -0.000054
     6  C    0.201850   0.363254   0.391848   0.001129  -0.000057  -0.000016
     7  O    8.410620  -0.055981  -0.053846   0.000582   0.000189  -0.000070
     8  C   -0.055981   5.223718  -0.079368   0.000001   0.000001  -0.000000
     9  C   -0.053846  -0.079368   5.178682  -0.000128  -0.000002  -0.000000
    10  O    0.000582   0.000001  -0.000128   8.319245   0.245183  -0.045307
    11  C    0.000189   0.000001  -0.000002   0.245183   4.888028   0.354525
    12  C   -0.000070  -0.000000  -0.000000  -0.045307   0.354525   4.882932
    13  O    0.000838   0.000006  -0.000004  -0.038899  -0.044668   0.243913
    14  C   -0.051202  -0.000234  -0.000222  -0.003931  -0.002031  -0.000109
    15  C   -0.007183  -0.000033  -0.000009   0.000245   0.000068  -0.000002
    16  C   -0.000005   0.000001  -0.000000  -0.000004  -0.000001   0.000000
    17  O   -0.000001  -0.000000  -0.000000   0.000000   0.000000  -0.000000
    18  O   -0.000002  -0.000000   0.000000   0.000000   0.000000  -0.000000
    19  H   -0.000840  -0.003457   0.000052   0.000053  -0.000013  -0.000029
    20  H    0.000825  -0.000475  -0.000007  -0.000034   0.000001   0.000002
    21  H    0.003012   0.000109   0.000005  -0.000005  -0.000007   0.000029
    22  H   -0.000050  -0.000170  -0.000130   0.001679   0.000169   0.001300
    23  H    0.002610  -0.000221  -0.000768  -0.000140   0.000009  -0.000005
    24  H    0.000468   0.363285  -0.005482   0.000000  -0.000000   0.000000
    25  H    0.003540   0.346294  -0.002251  -0.000000  -0.000000   0.000000
    26  H   -0.001022   0.364693   0.005561  -0.000001   0.000000   0.000000
    27  H    0.001736   0.006263   0.360404   0.000697   0.000004   0.000001
    28  H    0.003690   0.001082   0.351509   0.000001   0.000000   0.000000
    29  H    0.000155  -0.006339   0.360614  -0.000002   0.000000   0.000000
    30  H    0.000013  -0.000000   0.000000  -0.048329   0.358928  -0.040637
    31  H    0.000002  -0.000000   0.000000  -0.032327   0.364946  -0.028047
    32  H    0.000000   0.000000  -0.000000   0.003146  -0.026215   0.366720
    33  H    0.000003  -0.000000   0.000000  -0.001475  -0.042366   0.362726
    34  H    0.003027   0.000006   0.000004  -0.000755   0.000047  -0.000268
    35  H    0.001090   0.000022  -0.000032   0.011810  -0.000485   0.000119
    36  H    0.000060  -0.000001   0.000000  -0.000003   0.000001   0.000000
    37  H    0.014085   0.000027  -0.000002  -0.000003  -0.000003   0.000000
    38  H    0.000000   0.000000   0.000000  -0.000000  -0.000000   0.000000
              13         14         15         16         17         18
     1  C    0.000830  -0.064049  -0.008124   0.004810  -0.000156  -0.001038
     2  C   -0.046495   0.355809  -0.016340  -0.005354  -0.001517   0.000185
     3  C    0.168010  -0.030458   0.003609  -0.000052  -0.000007  -0.000000
     4  C   -0.037732   0.005216  -0.000079  -0.000003   0.000000  -0.000000
     5  C    0.003676   0.000404  -0.000014  -0.000000  -0.000000  -0.000000
     6  C    0.000319   0.004639   0.000113  -0.000009   0.000000   0.000000
     7  O    0.000838  -0.051202  -0.007183  -0.000005  -0.000001  -0.000002
     8  C    0.000006  -0.000234  -0.000033   0.000001  -0.000000  -0.000000
     9  C   -0.000004  -0.000222  -0.000009  -0.000000  -0.000000   0.000000
    10  O   -0.038899  -0.003931   0.000245  -0.000004   0.000000   0.000000
    11  C   -0.044668  -0.002031   0.000068  -0.000001   0.000000   0.000000
    12  C    0.243913  -0.000109  -0.000002   0.000000  -0.000000  -0.000000
    13  O    8.329246  -0.000453   0.000059  -0.000020  -0.000001  -0.000000
    14  C   -0.000453   5.159421   0.319710  -0.030806  -0.000235   0.002344
    15  C    0.000059   0.319710   5.272941   0.321462  -0.082554  -0.091157
    16  C   -0.000020  -0.030806   0.321462   4.343585   0.563921   0.277237
    17  O   -0.000001  -0.000235  -0.082554   0.563921   8.063859  -0.092849
    18  O   -0.000000   0.002344  -0.091157   0.277237  -0.092849   8.249041
    19  H    0.000040   0.005807  -0.000120   0.000056   0.000107   0.000001
    20  H    0.000172  -0.007373   0.001419   0.001388  -0.001502   0.001494
    21  H    0.004239  -0.003311  -0.000736   0.000739   0.004399  -0.000005
    22  H   -0.002952  -0.000134   0.000001   0.000000  -0.000000   0.000000
    23  H   -0.000081   0.000009   0.000000  -0.000000  -0.000000   0.000000
    24  H   -0.000000  -0.000009  -0.000041   0.000002   0.000000  -0.000000
    25  H   -0.000000   0.000004   0.000000  -0.000000   0.000000  -0.000000
    26  H   -0.000002   0.000002   0.000004  -0.000005  -0.000000  -0.000000
    27  H    0.000002  -0.000066   0.000000   0.000000  -0.000000  -0.000000
    28  H    0.000000   0.000003   0.000000   0.000000   0.000000  -0.000000
    29  H    0.000000  -0.000028  -0.000006   0.000000   0.000000  -0.000000
    30  H   -0.001382   0.000903  -0.000151   0.000004  -0.000004  -0.000000
    31  H    0.003277   0.000096  -0.000000  -0.000000  -0.000000  -0.000000
    32  H   -0.030015  -0.000022  -0.000002   0.000000  -0.000000   0.000000
    33  H   -0.048286  -0.000006   0.000000  -0.000000   0.000000  -0.000000
    34  H    0.005761   0.353774  -0.040502  -0.005559   0.010776   0.000326
    35  H    0.000415   0.348106  -0.033378   0.004801   0.000286  -0.000059
    36  H   -0.000000  -0.025994   0.362013  -0.028820  -0.000448   0.001045
    37  H   -0.000005  -0.038439   0.350129  -0.021542   0.002233   0.003414
    38  H    0.000000  -0.000359   0.011689  -0.008713   0.014809   0.212867
              19         20         21         22         23         24
     1  C    0.355764   0.354519   0.350251   0.000047  -0.000002  -0.000199
     2  C   -0.025137  -0.019373  -0.017926   0.004131  -0.000005  -0.000040
     3  C   -0.007920   0.004055  -0.001081  -0.038337   0.004791  -0.000019
     4  C    0.008682  -0.000081   0.000511   0.352266  -0.032936  -0.000051
     5  C    0.003941   0.000450   0.000053  -0.036739   0.346750   0.005169
     6  C    0.001164  -0.001225  -0.000019   0.004578  -0.042348  -0.023824
     7  O   -0.000840   0.000825   0.003012  -0.000050   0.002610   0.000468
     8  C   -0.003457  -0.000475   0.000109  -0.000170  -0.000221   0.363285
     9  C    0.000052  -0.000007   0.000005  -0.000130  -0.000768  -0.005482
    10  O    0.000053  -0.000034  -0.000005   0.001679  -0.000140   0.000000
    11  C   -0.000013   0.000001  -0.000007   0.000169   0.000009  -0.000000
    12  C   -0.000029   0.000002   0.000029   0.001300  -0.000005   0.000000
    13  O    0.000040   0.000172   0.004239  -0.002952  -0.000081  -0.000000
    14  C    0.005807  -0.007373  -0.003311  -0.000134   0.000009  -0.000009
    15  C   -0.000120   0.001419  -0.000736   0.000001   0.000000  -0.000041
    16  C    0.000056   0.001388   0.000739   0.000000  -0.000000   0.000002
    17  O    0.000107  -0.001502   0.004399  -0.000000  -0.000000   0.000000
    18  O    0.000001   0.001494  -0.000005   0.000000   0.000000  -0.000000
    19  H    0.565538  -0.034037  -0.024789  -0.000267   0.000019   0.000037
    20  H   -0.034037   0.573053  -0.026135   0.000012  -0.000008   0.000641
    21  H   -0.024789  -0.026135   0.527893  -0.000010   0.000001  -0.000006
    22  H   -0.000267   0.000012  -0.000010   0.590119  -0.008208   0.000004
    23  H    0.000019  -0.000008   0.000001  -0.008208   0.597167  -0.000133
    24  H    0.000037   0.000641  -0.000006   0.000004  -0.000133   0.561592
    25  H    0.000106   0.000063  -0.000001   0.000004   0.001278  -0.027443
    26  H    0.004138   0.000762   0.000096  -0.000030   0.000277  -0.030732
    27  H   -0.000002  -0.000002  -0.000000  -0.000045   0.000150  -0.000077
    28  H   -0.000000  -0.000000  -0.000000  -0.000003   0.001544   0.000109
    29  H   -0.000004   0.000002  -0.000000   0.000005  -0.000146   0.003920
    30  H   -0.000000   0.000002   0.000009   0.000029  -0.000000   0.000000
    31  H    0.000000  -0.000000  -0.000000  -0.000052  -0.000000   0.000000
    32  H   -0.000002  -0.000000  -0.000031  -0.000026  -0.000000  -0.000000
    33  H    0.000006   0.000000   0.000017   0.001388   0.000005   0.000000
    34  H   -0.000022   0.000236   0.001836  -0.000001  -0.000000   0.000000
    35  H   -0.000160  -0.000177   0.000016  -0.000004   0.000000  -0.000000
    36  H    0.000002   0.000060   0.000005  -0.000000  -0.000000   0.000000
    37  H   -0.000088   0.001959   0.000009   0.000000  -0.000001   0.000302
    38  H   -0.000000  -0.000020  -0.000012  -0.000000  -0.000000   0.000000
              25         26         27         28         29         30
     1  C   -0.000023   0.000745   0.000043   0.000017  -0.000004  -0.000119
     2  C    0.000030  -0.000228   0.000092  -0.000141  -0.000087   0.002315
     3  C   -0.000006   0.000122   0.000012  -0.000017   0.000002  -0.000114
     4  C    0.000088   0.000306   0.001247   0.000328  -0.000032  -0.000202
     5  C   -0.000140  -0.003891  -0.002708  -0.002779   0.005919  -0.000007
     6  C   -0.023831  -0.025648  -0.025091  -0.027785  -0.024577   0.000002
     7  O    0.003540  -0.001022   0.001736   0.003690   0.000155   0.000013
     8  C    0.346294   0.364693   0.006263   0.001082  -0.006339  -0.000000
     9  C   -0.002251   0.005561   0.360404   0.351509   0.360614   0.000000
    10  O   -0.000000  -0.000001   0.000697   0.000001  -0.000002  -0.048329
    11  C   -0.000000   0.000000   0.000004   0.000000   0.000000   0.358928
    12  C    0.000000   0.000000   0.000001   0.000000   0.000000  -0.040637
    13  O   -0.000000  -0.000002   0.000002   0.000000   0.000000  -0.001382
    14  C    0.000004   0.000002  -0.000066   0.000003  -0.000028   0.000903
    15  C    0.000000   0.000004   0.000000   0.000000  -0.000006  -0.000151
    16  C   -0.000000  -0.000005   0.000000   0.000000   0.000000   0.000004
    17  O    0.000000  -0.000000  -0.000000   0.000000   0.000000  -0.000004
    18  O   -0.000000  -0.000000  -0.000000  -0.000000  -0.000000  -0.000000
    19  H    0.000106   0.004138  -0.000002  -0.000000  -0.000004  -0.000000
    20  H    0.000063   0.000762  -0.000002  -0.000000   0.000002   0.000002
    21  H   -0.000001   0.000096  -0.000000  -0.000000  -0.000000   0.000009
    22  H    0.000004  -0.000030  -0.000045  -0.000003   0.000005   0.000029
    23  H    0.001278   0.000277   0.000150   0.001544  -0.000146  -0.000000
    24  H   -0.027443  -0.030732  -0.000077   0.000109   0.003920   0.000000
    25  H    0.593655  -0.029032  -0.000061   0.000832   0.000336   0.000000
    26  H   -0.029032   0.560647  -0.000201  -0.000046  -0.000015   0.000000
    27  H   -0.000061  -0.000201   0.549771  -0.025909  -0.029206  -0.000000
    28  H    0.000832  -0.000046  -0.025909   0.591776  -0.029862  -0.000000
    29  H    0.000336  -0.000015  -0.029206  -0.029862   0.569440  -0.000000
    30  H    0.000000   0.000000  -0.000000  -0.000000  -0.000000   0.628570
    31  H   -0.000000   0.000000  -0.000001  -0.000000  -0.000000  -0.047746
    32  H   -0.000000  -0.000000  -0.000000  -0.000000   0.000000  -0.003384
    33  H    0.000000   0.000000  -0.000000  -0.000000  -0.000000   0.005762
    34  H   -0.000000   0.000001   0.000001  -0.000000  -0.000000   0.002728
    35  H   -0.000000  -0.000003   0.000074   0.000002   0.000004  -0.000927
    36  H    0.000000   0.000000  -0.000000  -0.000000  -0.000000  -0.000001
    37  H   -0.000000  -0.000012  -0.000001  -0.000001   0.000088   0.000002
    38  H   -0.000000  -0.000000   0.000000  -0.000000  -0.000000   0.000000
              31         32         33         34         35         36
     1  C    0.000006  -0.000005  -0.000031  -0.002311   0.007134   0.000043
     2  C   -0.000350   0.000181  -0.000184  -0.025146  -0.028264   0.002483
     3  C    0.006230   0.005444  -0.000151  -0.003090  -0.011264  -0.000030
     4  C   -0.000131  -0.000385   0.002698   0.000221   0.000370   0.000001
     5  C   -0.000012   0.000010  -0.000207  -0.000018  -0.000061   0.000000
     6  C    0.000001   0.000000   0.000002  -0.000114  -0.000046   0.000004
     7  O    0.000002   0.000000   0.000003   0.003027   0.001090   0.000060
     8  C   -0.000000   0.000000  -0.000000   0.000006   0.000022  -0.000001
     9  C    0.000000  -0.000000   0.000000   0.000004  -0.000032   0.000000
    10  O   -0.032327   0.003146  -0.001475  -0.000755   0.011810  -0.000003
    11  C    0.364946  -0.026215  -0.042366   0.000047  -0.000485   0.000001
    12  C   -0.028047   0.366720   0.362726  -0.000268   0.000119   0.000000
    13  O    0.003277  -0.030015  -0.048286   0.005761   0.000415  -0.000000
    14  C    0.000096  -0.000022  -0.000006   0.353774   0.348106  -0.025994
    15  C   -0.000000  -0.000002   0.000000  -0.040502  -0.033378   0.362013
    16  C   -0.000000   0.000000  -0.000000  -0.005559   0.004801  -0.028820
    17  O   -0.000000  -0.000000   0.000000   0.010776   0.000286  -0.000448
    18  O   -0.000000   0.000000  -0.000000   0.000326  -0.000059   0.001045
    19  H    0.000000  -0.000002   0.000006  -0.000022  -0.000160   0.000002
    20  H   -0.000000  -0.000000   0.000000   0.000236  -0.000177   0.000060
    21  H   -0.000000  -0.000031   0.000017   0.001836   0.000016   0.000005
    22  H   -0.000052  -0.000026   0.001388  -0.000001  -0.000004  -0.000000
    23  H   -0.000000  -0.000000   0.000005  -0.000000   0.000000  -0.000000
    24  H    0.000000  -0.000000   0.000000   0.000000  -0.000000   0.000000
    25  H   -0.000000  -0.000000   0.000000  -0.000000  -0.000000   0.000000
    26  H    0.000000  -0.000000   0.000000   0.000001  -0.000003   0.000000
    27  H   -0.000001  -0.000000  -0.000000   0.000001   0.000074  -0.000000
    28  H   -0.000000  -0.000000  -0.000000  -0.000000   0.000002  -0.000000
    29  H   -0.000000   0.000000  -0.000000  -0.000000   0.000004  -0.000000
    30  H   -0.047746  -0.003384   0.005762   0.002728  -0.000927  -0.000001
    31  H    0.583918   0.002093  -0.004105   0.000038   0.000147  -0.000000
    32  H    0.002093   0.570139  -0.046270  -0.000143  -0.000021  -0.000000
    33  H   -0.004105  -0.046270   0.629456   0.000059  -0.000002   0.000000
    34  H    0.000038  -0.000143   0.000059   0.559722  -0.031530   0.000860
    35  H    0.000147  -0.000021  -0.000002  -0.031530   0.584405  -0.007474
    36  H   -0.000000  -0.000000   0.000000   0.000860  -0.007474   0.541932
    37  H    0.000000   0.000000  -0.000000   0.004308   0.000132  -0.024162
    38  H    0.000000   0.000000  -0.000000  -0.000030   0.000006  -0.000419
              37         38
     1  C   -0.000472   0.000012
     2  C   -0.006703  -0.000004
     3  C    0.000337  -0.000000
     4  C   -0.000003  -0.000000
     5  C    0.000041   0.000000
     6  C   -0.000551  -0.000000
     7  O    0.014085   0.000000
     8  C    0.000027   0.000000
     9  C   -0.000002   0.000000
    10  O   -0.000003  -0.000000
    11  C   -0.000003  -0.000000
    12  C    0.000000   0.000000
    13  O   -0.000005   0.000000
    14  C   -0.038439  -0.000359
    15  C    0.350129   0.011689
    16  C   -0.021542  -0.008713
    17  O    0.002233   0.014809
    18  O    0.003414   0.212867
    19  H   -0.000088  -0.000000
    20  H    0.001959  -0.000020
    21  H    0.000009  -0.000012
    22  H    0.000000  -0.000000
    23  H   -0.000001  -0.000000
    24  H    0.000302   0.000000
    25  H   -0.000000  -0.000000
    26  H   -0.000012  -0.000000
    27  H   -0.000001   0.000000
    28  H   -0.000001  -0.000000
    29  H    0.000088  -0.000000
    30  H    0.000002   0.000000
    31  H    0.000000   0.000000
    32  H    0.000000   0.000000
    33  H   -0.000000  -0.000000
    34  H    0.004308  -0.000030
    35  H    0.000132   0.000006
    36  H   -0.024162  -0.000419
    37  H    0.521610  -0.000341
    38  H   -0.000341   0.366062
 Mulliken charges:
               1
     1  C   -0.490094
     2  C    0.303725
     3  C    0.484252
     4  C   -0.113929
     5  C   -0.129504
     6  C    0.313515
     7  O   -0.560368
     8  C   -0.454567
     9  C   -0.447066
    10  O   -0.500835
    11  C   -0.049271
    12  C   -0.052640
    13  O   -0.509807
    14  C   -0.296775
    15  C   -0.363031
    16  C    0.582885
    17  O   -0.481113
    18  O   -0.562843
    19  H    0.151377
    20  H    0.149332
    21  H    0.180846
    22  H    0.131426
    23  H    0.130391
    24  H    0.152526
    25  H    0.136559
    26  H    0.153512
    27  H    0.162873
    28  H    0.135650
    29  H    0.149821
    30  H    0.143734
    31  H    0.152017
    32  H    0.158786
    33  H    0.140959
    34  H    0.165758
    35  H    0.154951
    36  H    0.178843
    37  H    0.193653
    38  H    0.404451
 Sum of Mulliken charges =   0.00000
 Mulliken charges with hydrogens summed into heavy atoms:
               1
     1  C   -0.008539
     2  C    0.303725
     3  C    0.484252
     4  C    0.017497
     5  C    0.000888
     6  C    0.313515
     7  O   -0.560368
     8  C   -0.011970
     9  C    0.001278
    10  O   -0.500835
    11  C    0.246480
    12  C    0.247105
    13  O   -0.509807
    14  C    0.023933
    15  C    0.009465
    16  C    0.582885
    17  O   -0.481113
    18  O   -0.158392
 Electronic spatial extent (au):  <R**2>=           4545.8681
 Charge=              0.0000 electrons
 Dipole moment (field-independent basis, Debye):
    X=              1.2970    Y=             -0.2418    Z=              0.2020  Tot=              1.3347
 Quadrupole moment (field-independent basis, Debye-Ang):
   XX=            -99.8178   YY=            -98.6863   ZZ=           -108.2676
   XY=             -5.7702   XZ=             -2.5327   YZ=             -5.5371
 Traceless Quadrupole moment (field-independent basis, Debye-Ang):
   XX=              2.4394   YY=              3.5709   ZZ=             -6.0104
   XY=             -5.7702   XZ=             -2.5327   YZ=             -5.5371
 Octapole moment (field-independent basis, Debye-Ang**2):
  XXX=            -45.3827  YYY=            -37.9445  ZZZ=              6.8637  XYY=             32.7726
  XXY=              6.1226  XXZ=            -15.7959  XZZ=            -15.8736  YZZ=             -1.9999
  YYZ=              7.5981  XYZ=              7.3318
 Hexadecapole moment (field-independent basis, Debye-Ang**3):
 XXXX=          -2606.3996 YYYY=          -2069.0501 ZZZZ=           -651.6165 XXXY=            -79.8859
 XXXZ=             65.4354 YYYX=            -75.1120 YYYZ=             -3.4424 ZZZX=             10.7518
 ZZZY=             -1.1242 XXYY=           -860.4162 XXZZ=           -575.3832 YYZZ=           -476.7602
 XXYZ=            -44.1363 YYXZ=              1.0236 ZZXY=            -10.9784
 N-N= 1.504216223072D+03 E-N=-5.070317846326D+03  KE= 8.755367523599D+02
 Calling FoFJK, ICntrl=      2127 FMM=F ISym2X=0 I1Cent= 0 IOpClX= 0 NMat=1 NMatS=1 NMatT=0.
 ***** Axes restored to original set *****
 -------------------------------------------------------------------
 Center     Atomic                   Forces (Hartrees/Bohr)
 Number     Number              X              Y              Z
 -------------------------------------------------------------------
      1        6          -0.002197694    0.008596502   -0.004046680
      2        6           0.016054943   -0.003198006   -0.000799001
      3        6          -0.016082478   -0.009958917   -0.014203666
      4        6          -0.009672685   -0.017726396   -0.007313145
      5        6           0.010872927    0.009113469    0.005565754
      6        6          -0.007069888   -0.004234714   -0.001045371
      7        8           0.002397489    0.017891747    0.005722914
      8        6           0.002171724   -0.000985201   -0.010456415
      9        6           0.000162038   -0.002693727    0.010491296
     10        8           0.007895971    0.007826651   -0.006565543
     11        6           0.004807563   -0.008589013    0.010526820
     12        6          -0.002528655    0.008179142   -0.007220012
     13        8           0.006358011   -0.014300364    0.011869255
     14        6          -0.009491794   -0.001896756    0.010999100
     15        6          -0.003773675    0.007134591   -0.004733523
     16        6           0.009866124    0.009016191   -0.003384650
     17        8          -0.007000780   -0.002688960    0.005130663
     18        8           0.001452119   -0.005183466   -0.006325141
     19        1          -0.001353302    0.000521049    0.002389785
     20        1           0.001483972   -0.001224480    0.004564845
     21        1          -0.000816102   -0.001932395    0.002478954
     22        1           0.002388117    0.002818449    0.000746098
     23        1          -0.000784893   -0.003590758   -0.001092871
     24        1          -0.001591052    0.000288094    0.003535722
     25        1          -0.000398185    0.000110466    0.001549591
     26        1          -0.000360661    0.001809634    0.001153083
     27        1           0.000429915    0.002724845   -0.002665072
     28        1           0.000980533    0.000748817   -0.001673340
     29        1           0.000672943    0.000426301   -0.003661159
     30        1           0.004286081    0.002544233    0.001445067
     31        1          -0.003257272   -0.001903825    0.000445496
     32        1           0.001042706   -0.001179779   -0.003716950
     33        1          -0.001309282    0.003467717    0.003567586
     34        1          -0.001573487   -0.001635184   -0.003820752
     35        1          -0.003420339    0.004419695   -0.002676996
     36        1          -0.000176403   -0.001624478   -0.000055227
     37        1           0.001198296    0.000172059    0.001927974
     38        1          -0.001662844   -0.003263235    0.001345512
 -------------------------------------------------------------------
 Cartesian Forces:  Max     0.017891747 RMS     0.005996319

 GradGradGradGradGradGradGradGradGradGradGradGradGradGradGradGradGradGrad
 Berny optimization.
 FormGI is forming the generalized inverse of G from B-inverse, IUseBI=4.
 Internal  Forces:  Max     0.017927050 RMS     0.003292994
 Search for a local minimum.
 Step number   1 out of a maximum of  227
 All quantities printed in internal units (Hartrees-Bohrs-Radians)
 Mixed Optimization -- RFO/linear search
 Second derivative matrix not updated -- first step.
 ITU=  0
     Eigenvalues ---    0.00230   0.00230   0.00292   0.00298   0.00325
     Eigenvalues ---    0.00615   0.00713   0.01012   0.01090   0.01109
     Eigenvalues ---    0.01277   0.01380   0.01570   0.01804   0.02392
     Eigenvalues ---    0.03163   0.04029   0.04676   0.04765   0.04840
     Eigenvalues ---    0.04963   0.05166   0.05282   0.05297   0.05335
     Eigenvalues ---    0.05349   0.05357   0.05467   0.05493   0.05543
     Eigenvalues ---    0.05662   0.05909   0.06268   0.06313   0.06998
     Eigenvalues ---    0.07881   0.08287   0.08741   0.09534   0.10114
     Eigenvalues ---    0.11042   0.11130   0.11731   0.12269   0.12540
     Eigenvalues ---    0.12904   0.13024   0.14274   0.15423   0.15993
     Eigenvalues ---    0.15998   0.16000   0.16000   0.16000   0.16000
     Eigenvalues ---    0.16000   0.16000   0.16000   0.16000   0.16000
     Eigenvalues ---    0.16000   0.17164   0.17562   0.20524   0.21986
     Eigenvalues ---    0.21992   0.21993   0.24359   0.24986   0.25000
     Eigenvalues ---    0.26954   0.28321   0.28895   0.28936   0.29118
     Eigenvalues ---    0.29413   0.30020   0.31330   0.31960   0.33895
     Eigenvalues ---    0.34019   0.34062   0.34066   0.34081   0.34104
     Eigenvalues ---    0.34132   0.34164   0.34200   0.34246   0.34255
     Eigenvalues ---    0.34275   0.34279   0.34319   0.34407   0.34477
     Eigenvalues ---    0.34487   0.35127   0.35532   0.36397   0.36934
     Eigenvalues ---    0.37697   0.38719   0.40434   0.40999   0.51420
     Eigenvalues ---    0.54724   0.55644   0.95776
 RFO step:  Lambda=-1.42155115D-02 EMin= 2.30000000D-03
 Linear search not attempted -- first point.
 Iteration  1 RMS(Cart)=  0.06458461 RMS(Int)=  0.00107487
 Iteration  2 RMS(Cart)=  0.00207208 RMS(Int)=  0.00047402
 Iteration  3 RMS(Cart)=  0.00000170 RMS(Int)=  0.00047402
 Iteration  4 RMS(Cart)=  0.00000000 RMS(Int)=  0.00047402
 Variable       Old X    -DE/DX   Delta X   Delta X   Delta X     New X
                                 (Linear)    (Quad)   (Total)
    R1        2.91443  -0.00518   0.00000  -0.01743  -0.01743   2.89700
    R2        2.06795  -0.00002   0.00000  -0.00004  -0.00004   2.06790
    R3        2.06901  -0.00071   0.00000  -0.00198  -0.00198   2.06703
    R4        2.06916  -0.00204   0.00000  -0.00571  -0.00571   2.06345
    R5        2.98737  -0.01793   0.00000  -0.06986  -0.07001   2.91736
    R6        2.73632  -0.01038   0.00000  -0.02406  -0.02419   2.71214
    R7        2.94485  -0.01388   0.00000  -0.04893  -0.04893   2.89592
    R8        2.83830   0.00292   0.00000   0.00563   0.00534   2.84364
    R9        2.72172  -0.00139   0.00000  -0.00203  -0.00121   2.72051
[...]
   367    O   17  pz     Ryd( 3p)     0.00072       0.94648
   368    O   17  pz     Ryd( 4p)     0.00002       0.97918
   369    O   17  pz     Ryd( 5p)     0.00002       5.14310
   370    O   17  dxy    Ryd( 3d)     0.00062       3.23808
   371    O   17  dxz    Ryd( 3d)     0.00018       3.04786
   372    O   17  dyz    Ryd( 3d)     0.00074       3.53984
   373    O   17  dx2y2  Ryd( 3d)     0.00058       3.40781
   374    O   17  dz2    Ryd( 3d)     0.00046       3.12522
 
   375    O   18  S      Cor( 1S)     0.99988     -18.86386
   376    O   18  S      Val( 2S)     0.84379      -0.85391
   377    O   18  S      Ryd( 3S)     0.00073       1.10974
   378    O   18  S      Ryd( 4S)     0.00024       1.12719
   379    O   18  S      Ryd( 5S)     0.00000      49.66526
   380    O   18  px     Val( 2p)     0.78803      -0.23655
   381    O   18  px     Ryd( 3p)     0.00057       0.59843
   382    O   18  px     Ryd( 4p)     0.00052       1.15252
   383    O   18  px     Ryd( 5p)     0.00002       5.24411
   384    O   18  py     Val( 2p)     0.85271      -0.26028
   385    O   18  py     Ryd( 3p)     0.00068       0.54030
   386    O   18  py     Ryd( 4p)     0.00027       1.15036
   387    O   18  py     Ryd( 5p)     0.00007       5.28631
   388    O   18  pz     Val( 2p)     0.85399      -0.24086
   389    O   18  pz     Ryd( 3p)     0.00080       0.45939
   390    O   18  pz     Ryd( 4p)     0.00040       1.16417
   391    O   18  pz     Ryd( 5p)     0.00000       5.16509
   392    O   18  dxy    Ryd( 3d)     0.00062       3.42298
   393    O   18  dxz    Ryd( 3d)     0.00034       3.43556
   394    O   18  dyz    Ryd( 3d)     0.00052       3.18963
   395    O   18  dx2y2  Ryd( 3d)     0.00041       3.21979
   396    O   18  dz2    Ryd( 3d)     0.00027       3.15133
 
   397    H   19  S      Val( 1S)     0.39352       0.14243
   398    H   19  S      Ryd( 2S)     0.00037       0.67421
   399    H   19  S      Ryd( 4S)     0.00031       1.56840
   400    H   19  S      Ryd( 3S)     0.00004       1.14642
   401    H   19  px     Ryd( 2p)     0.00009       2.34636
   402    H   19  py     Ryd( 2p)     0.00007       2.10512
   403    H   19  pz     Ryd( 2p)     0.00008       2.38892
 
   404    H   20  S      Val( 1S)     0.39595       0.13697
   405    H   20  S      Ryd( 2S)     0.00049       0.66667
   406    H   20  S      Ryd( 4S)     0.00044       1.81191
   407    H   20  S      Ryd( 3S)     0.00003       0.89657
   408    H   20  px     Ryd( 2p)     0.00008       2.47627
   409    H   20  py     Ryd( 2p)     0.00010       2.40077
   410    H   20  pz     Ryd( 2p)     0.00006       1.98216
 
   411    H   21  S      Val( 1S)     0.38322       0.15772
   412    H   21  S      Ryd( 2S)     0.00052       0.60891
   413    H   21  S      Ryd( 4S)     0.00033       1.93857
   414    H   21  S      Ryd( 3S)     0.00002       0.90529
   415    H   21  px     Ryd( 2p)     0.00008       2.15791
   416    H   21  py     Ryd( 2p)     0.00012       2.58134
   417    H   21  pz     Ryd( 2p)     0.00006       2.13240
 
   418    H   22  S      Val( 1S)     0.39235       0.14036
   419    H   22  S      Ryd( 2S)     0.00062       0.50877
   420    H   22  S      Ryd( 4S)     0.00036       1.67870
   421    H   22  S      Ryd( 3S)     0.00004       0.90684
   422    H   22  px     Ryd( 2p)     0.00009       2.53176
   423    H   22  py     Ryd( 2p)     0.00008       2.41520
   424    H   22  pz     Ryd( 2p)     0.00013       2.19547
 
   425    H   23  S      Val( 1S)     0.39322       0.13805
   426    H   23  S      Ryd( 2S)     0.00087       0.41523
   427    H   23  S      Ryd( 4S)     0.00035       1.63394
   428    H   23  S      Ryd( 3S)     0.00003       0.98730
   429    H   23  px     Ryd( 2p)     0.00015       2.38256
   430    H   23  py     Ryd( 2p)     0.00010       2.32886
   431    H   23  pz     Ryd( 2p)     0.00013       2.00305
 
   432    H   24  S      Val( 1S)     0.39610       0.13036
   433    H   24  S      Ryd( 2S)     0.00028       0.53897
   434    H   24  S      Ryd( 4S)     0.00034       1.61561
   435    H   24  S      Ryd( 3S)     0.00002       1.15464
   436    H   24  px     Ryd( 2p)     0.00010       2.36597
   437    H   24  py     Ryd( 2p)     0.00008       2.17483
   438    H   24  pz     Ryd( 2p)     0.00009       2.14063
 
   439    H   25  S      Val( 1S)     0.39867       0.12157
   440    H   25  S      Ryd( 2S)     0.00043       0.42672
   441    H   25  S      Ryd( 4S)     0.00027       1.52287
   442    H   25  S      Ryd( 3S)     0.00002       1.17463
   443    H   25  px     Ryd( 2p)     0.00010       2.29898
   444    H   25  py     Ryd( 2p)     0.00010       2.31684
   445    H   25  pz     Ryd( 2p)     0.00008       1.99685
 
   446    H   26  S      Val( 1S)     0.39564       0.13357
   447    H   26  S      Ryd( 2S)     0.00045       0.64959
   448    H   26  S      Ryd( 4S)     0.00026       1.54932
   449    H   26  S      Ryd( 3S)     0.00001       1.00821
   450    H   26  px     Ryd( 2p)     0.00007       2.08537
   451    H   26  py     Ryd( 2p)     0.00008       2.01029
   452    H   26  pz     Ryd( 2p)     0.00012       2.56236
 
   453    H   27  S      Val( 1S)     0.39100       0.14324
   454    H   27  S      Ryd( 2S)     0.00038       0.51118
   455    H   27  S      Ryd( 4S)     0.00034       1.78945
   456    H   27  S      Ryd( 3S)     0.00003       0.94504
   457    H   27  px     Ryd( 2p)     0.00006       2.10053
   458    H   27  py     Ryd( 2p)     0.00012       2.38009
   459    H   27  pz     Ryd( 2p)     0.00007       2.22587
 
   460    H   28  S      Val( 1S)     0.40039       0.12256
   461    H   28  S      Ryd( 2S)     0.00032       0.41204
   462    H   28  S      Ryd( 4S)     0.00025       1.45642
   463    H   28  S      Ryd( 3S)     0.00001       1.22175
   464    H   28  px     Ryd( 2p)     0.00011       2.40279
   465    H   28  py     Ryd( 2p)     0.00009       2.27381
   466    H   28  pz     Ryd( 2p)     0.00007       1.91675
 
   467    H   29  S      Val( 1S)     0.39789       0.12995
   468    H   29  S      Ryd( 2S)     0.00023       0.53308
   469    H   29  S      Ryd( 4S)     0.00033       1.51638
   470    H   29  S      Ryd( 3S)     0.00003       1.18929
   471    H   29  px     Ryd( 2p)     0.00011       2.27644
   472    H   29  py     Ryd( 2p)     0.00007       2.18241
   473    H   29  pz     Ryd( 2p)     0.00008       2.22666
 
   474    H   30  S      Val( 1S)     0.41695       0.10105
   475    H   30  S      Ryd( 2S)     0.00051       0.49669
   476    H   30  S      Ryd( 4S)     0.00049       1.67312
   477    H   30  S      Ryd( 3S)     0.00002       1.20443
   478    H   30  px     Ryd( 2p)     0.00017       2.53584
   479    H   30  py     Ryd( 2p)     0.00005       1.99225
   480    H   30  pz     Ryd( 2p)     0.00013       2.18171
 
   481    H   31  S      Val( 1S)     0.40403       0.10474
   482    H   31  S      Ryd( 2S)     0.00092       0.31581
   483    H   31  S      Ryd( 4S)     0.00033       1.52568
   484    H   31  S      Ryd( 3S)     0.00003       1.19808
   485    H   31  px     Ryd( 2p)     0.00015       2.41063
   486    H   31  py     Ryd( 2p)     0.00007       2.02633
   487    H   31  pz     Ryd( 2p)     0.00014       2.16176
 
   488    H   32  S      Val( 1S)     0.40311       0.10429
   489    H   32  S      Ryd( 2S)     0.00055       0.36259
   490    H   32  S      Ryd( 4S)     0.00028       1.61311
   491    H   32  S      Ryd( 3S)     0.00003       1.14512
   492    H   32  px     Ryd( 2p)     0.00011       2.11972
   493    H   32  py     Ryd( 2p)     0.00014       2.56918
   494    H   32  pz     Ryd( 2p)     0.00012       1.93701
 
   495    H   33  S      Val( 1S)     0.41490       0.09697
   496    H   33  S      Ryd( 2S)     0.00091       0.41993
   497    H   33  S      Ryd( 4S)     0.00050       1.57335
   498    H   33  S      Ryd( 3S)     0.00002       1.25408
   499    H   33  px     Ryd( 2p)     0.00017       2.68109
   500    H   33  py     Ryd( 2p)     0.00006       1.99674
   501    H   33  pz     Ryd( 2p)     0.00013       2.00869
 
   502    H   34  S      Val( 1S)     0.38542       0.14904
   503    H   34  S      Ryd( 2S)     0.00088       0.55007
   504    H   34  S      Ryd( 4S)     0.00054       2.16054
   505    H   34  S      Ryd( 3S)     0.00002       0.75851
   506    H   34  px     Ryd( 2p)     0.00009       2.12598
   507    H   34  py     Ryd( 2p)     0.00011       2.73844
   508    H   34  pz     Ryd( 2p)     0.00006       2.08402
 
   509    H   35  S      Val( 1S)     0.38726       0.15242
   510    H   35  S      Ryd( 2S)     0.00057       0.57696
   511    H   35  S      Ryd( 4S)     0.00049       2.00734
   512    H   35  S      Ryd( 3S)     0.00003       0.90688
   513    H   35  px     Ryd( 2p)     0.00011       2.23710
   514    H   35  py     Ryd( 2p)     0.00005       2.09064
   515    H   35  pz     Ryd( 2p)     0.00010       2.71943
 
   516    H   36  S      Val( 1S)     0.38249       0.11846
   517    H   36  S      Ryd( 2S)     0.00025       0.48616
   518    H   36  S      Ryd( 4S)     0.00029       1.53552
   519    H   36  S      Ryd( 3S)     0.00002       1.16788
   520    H   36  px     Ryd( 2p)     0.00010       2.08413
   521    H   36  py     Ryd( 2p)     0.00008       2.05477
   522    H   36  pz     Ryd( 2p)     0.00014       2.66209
 
   523    H   37  S      Val( 1S)     0.37981       0.14245
   524    H   37  S      Ryd( 2S)     0.00080       0.59836
   525    H   37  S      Ryd( 4S)     0.00050       2.05887
   526    H   37  S      Ryd( 3S)     0.00001       0.73765
   527    H   37  px     Ryd( 2p)     0.00008       1.99327
   528    H   37  py     Ryd( 2p)     0.00012       2.90003
   529    H   37  pz     Ryd( 2p)     0.00006       1.97394
 
   530    H   38  S      Val( 1S)     0.24747       0.13704
   531    H   38  S      Ryd( 2S)     0.00864       0.23715
   532    H   38  S      Ryd( 4S)     0.00048       2.27002
   533    H   38  S      Ryd( 3S)     0.00005       0.75866
   534    H   38  px     Ryd( 2p)     0.00053       2.20580
   535    H   38  py     Ryd( 2p)     0.00053       1.88248
   536    H   38  pz     Ryd( 2p)     0.00057       2.08349

 WARNING:  Population inversion found on atom  C    1
           Population inversion found on atom  C    2
           Population inversion found on atom  C    3
           Population inversion found on atom  C    4
           Population inversion found on atom  C    5
           Population inversion found on atom  C    6
           Population inversion found on atom  C    8
           Population inversion found on atom  C    9
           Population inversion found on atom  C   11
           Population inversion found on atom  C   12
           Population inversion found on atom  C   14
           Population inversion found on atom  C   15
           Population inversion found on atom  C   16
           Population inversion found on atom  O   17
           Population inversion found on atom  H   19
           Population inversion found on atom  H   20
           Population inversion found on atom  H   21
           Population inversion found on atom  H   22
           Population inversion found on atom  H   23
           Population inversion found on atom  H   24
           Population inversion found on atom  H   25
           Population inversion found on atom  H   26
           Population inversion found on atom  H   27
           Population inversion found on atom  H   28
           Population inversion found on atom  H   29
           Population inversion found on atom  H   30
           Population inversion found on atom  H   31
           Population inversion found on atom  H   32
           Population inversion found on atom  H   33
           Population inversion found on atom  H   34
           Population inversion found on atom  H   35
           Population inversion found on atom  H   36
           Population inversion found on atom  H   37
           Population inversion found on atom  H   38


 Summary of Natural Population Analysis:                  
                                                          
                                       Natural Population 
                Natural  -----------------------------------------------
    Atom  No    Charge         Core      Valence    Rydberg      Total
 -----------------------------------------------------------------------
      C    1   -0.30806      0.99961     2.30159    0.00686     3.30806
      C    2    0.13769      0.99944     1.84647    0.01641     2.86231
      C    3    0.27818      0.99942     1.69912    0.02328     2.72182
      C    4   -0.10807      0.99944     2.09475    0.01388     3.10807
      C    5   -0.09048      0.99948     2.07989    0.01111     3.09048
      C    6    0.11926      0.99950     1.86573    0.01550     2.88074
      O    7   -0.32153      0.99986     3.30988    0.01179     4.32153
      C    8   -0.29116      0.99961     2.28492    0.00663     3.29116
      C    9   -0.28281      0.99961     2.27663    0.00658     3.28281
      O   10   -0.30216      0.99988     3.29384    0.00844     4.30216
      C   11   -0.02288      0.99958     2.01185    0.01145     3.02288
      C   12   -0.02350      0.99959     2.01202    0.01189     3.02350
      O   13   -0.30146      0.99987     3.29344    0.00814     4.30146
      C   14   -0.20077      0.99956     2.18941    0.01179     3.20077
      C   15   -0.24255      0.99957     2.23387    0.00911     3.24255
      C   16    0.40841      0.99971     1.56634    0.02554     2.59159
      O   17   -0.30974      0.99987     3.30372    0.00615     4.30974
      O   18   -0.34485      0.99988     3.33852    0.00645     4.34485
      H   19    0.10554      0.00000     0.39352    0.00095     0.39446
      H   20    0.10286      0.00000     0.39595    0.00119     0.39714
      H   21    0.11566      0.00000     0.38322    0.00112     0.38434
      H   22    0.10633      0.00000     0.39235    0.00132     0.39367
      H   23    0.10515      0.00000     0.39322    0.00163     0.39485
      H   24    0.10300      0.00000     0.39610    0.00090     0.39700
      H   25    0.10033      0.00000     0.39867    0.00099     0.39967
      H   26    0.10337      0.00000     0.39564    0.00099     0.39663
      H   27    0.10800      0.00000     0.39100    0.00100     0.39200
      H   28    0.09875      0.00000     0.40039    0.00086     0.40125
      H   29    0.10125      0.00000     0.39789    0.00086     0.39875
      H   30    0.08168      0.00000     0.41695    0.00137     0.41832
      H   31    0.09433      0.00000     0.40403    0.00164     0.40567
      H   32    0.09566      0.00000     0.40311    0.00123     0.40434
      H   33    0.08332      0.00000     0.41490    0.00178     0.41668
      H   34    0.11288      0.00000     0.38542    0.00170     0.38712
      H   35    0.11139      0.00000     0.38726    0.00135     0.38861
      H   36    0.11664      0.00000     0.38249    0.00088     0.38336
      H   37    0.11862      0.00000     0.37981    0.00157     0.38138
      H   38    0.24172      0.00000     0.24747    0.01080     0.25828
 =======================================================================
   * Total *   -0.00000     17.99347    50.76138    0.24516    69.00000

                                 Natural Population      
 --------------------------------------------------------
   Core                      17.99347 ( 99.9637% of  18)
   Valence                   50.76138 ( 99.5321% of  51)
   Natural Minimal Basis     68.75484 ( 99.6447% of  69)
   Natural Rydberg Basis      0.24516 (  0.3553% of  69)
 --------------------------------------------------------

    Atom  No          Natural Electron Configuration
 ----------------------------------------------------------------------------
      C    1      [core]2S( 0.54)2p( 1.76)
      C    2      [core]2S( 0.44)2p( 1.40)3p( 0.01)
      C    3      [core]2S( 0.43)2p( 1.27)3p( 0.01)3d( 0.01)
      C    4      [core]2S( 0.48)2p( 1.62)3p( 0.01)
      C    5      [core]2S( 0.47)2p( 1.61)3p( 0.01)
      C    6      [core]2S( 0.45)2p( 1.42)3p( 0.01)
      O    7      [core]2S( 0.80)2p( 2.51)3p( 0.01)
      C    8      [core]2S( 0.54)2p( 1.74)
      C    9      [core]2S( 0.54)2p( 1.74)
      O   10      [core]2S( 0.82)2p( 2.48)
      C   11      [core]2S( 0.51)2p( 1.50)
      C   12      [core]2S( 0.51)2p( 1.50)
      O   13      [core]2S( 0.81)2p( 2.48)
      C   14      [core]2S( 0.51)2p( 1.68)3p( 0.01)
      C   15      [core]2S( 0.52)2p( 1.71)
      C   16      [core]2S( 0.39)2p( 1.17)3d( 0.01)4p( 0.01)
      O   17      [core]2S( 0.85)2p( 2.45)
      O   18      [core]2S( 0.84)2p( 2.49)
      H   19            1S( 0.39)
      H   20            1S( 0.40)
      H   21            1S( 0.38)
      H   22            1S( 0.39)
      H   23            1S( 0.39)
      H   24            1S( 0.40)
      H   25            1S( 0.40)
      H   26            1S( 0.40)
      H   27            1S( 0.39)
      H   28            1S( 0.40)
      H   29            1S( 0.40)
      H   30            1S( 0.42)
      H   31            1S( 0.40)
      H   32            1S( 0.40)
      H   33            1S( 0.41)
      H   34            1S( 0.39)
      H   35            1S( 0.39)
      H   36            1S( 0.38)
      H   37            1S( 0.38)
      H   38            1S( 0.25)2S( 0.01)


 NBO analysis skipped by request.
 1\1\GINC-NODE203\SP\UB3LYP\6-311++G(d,p)\C13H20O5(1-,2)\VSC10255\11-De
 c-2020\0\\# B3LYP/6-311++G(d,p) empiricaldispersion=gd3bj scf=xqc pop=
 npa geom=check\\CID_11345876_JID_8883_Energie_anion\\-1,2\C,0,0.964378
 7244,-0.0596970493,0.0220660114\C,0,0.5932036799,-0.2559832873,1.49908
 34513\C,0,-0.0066979789,1.0518726787,2.0765272635\C,0,-1.3900520658,1.
 281697866,1.5333750287\C,0,-2.1486431089,0.2690066019,1.1221837249\C,0
 ,-1.7114244478,-1.1702055497,1.2041671224\O,0,-0.3647125177,-1.3078267
 491,1.6862143329\C,0,-1.8518685176,-1.8690159709,-0.159957706\C,0,-2.5
 642547972,-1.8931021835,2.2585145687\O,0,-0.0943378225,1.0196562365,3.
 5125867184\C,0,0.7988598562,1.9961771809,4.039203352\C,0,0.928299148,2
 .9854836362,2.8865658375\O,0,0.8641070083,2.1315934793,1.7496800509\C,
 0,1.8007955211,-0.699510042,2.3377541924\C,0,2.439612239,-2.0045545742
 ,1.851930766\C,0,3.4485439306,-1.7995645348,0.744999441\O,0,4.16881472
 03,-0.8341556179,0.6086603182\O,0,3.4982906226,-2.8610708803,-0.100047
 5996\H,0,0.1401114942,0.3858495546,-0.5391342609\H,0,1.2023755048,-1.0
 26932554,-0.4302321148\H,0,1.8324232789,0.5960836267,-0.0656586068\H,0
 ,-1.7325332581,2.3125621739,1.4960241476\H,0,-3.1475628807,0.441781503
 ,0.7259472368\H,0,-1.4991676752,-2.9016981863,-0.0766171289\H,0,-2.900
 0030756,-1.8852682919,-0.4797647081\H,0,-1.2668505728,-1.3640629398,-0
 .9317866441\H,0,-2.4376908074,-1.4038432955,3.2277666392\H,0,-3.624912
 0802,-1.8810122862,1.9853306331\H,0,-2.2360431275,-2.9344251085,2.3438
 16551\H,0,1.7692203756,1.5455924651,4.2883185992\H,0,0.3538041734,2.42
 26010663,4.9425630356\H,0,1.8787387966,3.5232206848,2.8552654514\H,0,0
 .0992472298,3.7082840588,2.8852108746\H,0,2.5524197989,0.0946785366,2.
 3301406936\H,0,1.4464482742,-0.8322978923,3.3618818644\H,0,2.993462759
 1,-2.4707820863,2.6780382091\H,0,1.6788346672,-2.7227808818,1.53897188
 52\H,0,4.1968029307,-2.6511313876,-0.7486692318\\Version=ES64L-G16RevA
 .03\State=2-A\HF=-883.8422018\S2=0.750037\S2-1=0.\S2A=0.75\RMSD=1.067e
 -11\Dipole=-0.2364406,-0.565705,0.2677742\Quadrupole=-11.7039154,1.012
 2906,10.6916248,8.5328926,5.633908,-13.0105205\PG=C01 [X(C13H20O5)]\\@


 THE HURRIEDER I GO, THE BEHINDER I GET.
 Job cpu time:       0 days  1 hours 48 minutes 17.9 seconds.
 Elapsed time:       0 days  0 hours 27 minutes 10.1 seconds.
 File lengths (MBytes):  RWF=    328 Int=      0 D2E=      0 Chk=     32 Scr=      8
 Normal termination of Gaussian 16 at Fri Dec 11 23:46:08 2020.
