 Entering Gaussian System, Link 0=g16
 Initial command:
 /apps/brussel/CO7/ivybridge-ib/software/Gaussian/G16.A.03-intel-2017b/g16/l1.exe "/scratch/brussel/102/vsc10255/3543015[1293].master01.hydra.brussel.vsc/Gau-52952.inp" -scrdir="/scratch/brussel/102/vsc10255/3543015[1293].master01.hydra.brussel.vsc/"
 Entering Link 1 = /apps/brussel/CO7/ivybridge-ib/software/Gaussian/G16.A.03-intel-2017b/g16/l1.exe.bin PID=     52953.
  
 Copyright (c) 1988,1990,1992,1993,1995,1998,2003,2009,2016,
            Gaussian, Inc.  All Rights Reserved.
  
 This is part of the Gaussian(R) 16 program.  It is based on
 the Gaussian(R) 09 system (copyright 2009, Gaussian, Inc.),
 the Gaussian(R) 03 system (copyright 2003, Gaussian, Inc.),
 the Gaussian(R) 98 system (copyright 1998, Gaussian, Inc.),
 the Gaussian(R) 94 system (copyright 1995, Gaussian, Inc.),
 the Gaussian 92(TM) system (copyright 1992, Gaussian, Inc.),
 the Gaussian 90(TM) system (copyright 1990, Gaussian, Inc.),
 the Gaussian 88(TM) system (copyright 1988, Gaussian, Inc.),
 the Gaussian 86(TM) system (copyright 1986, Carnegie Mellon
 University), and the Gaussian 82(TM) system (copyright 1983,
 Carnegie Mellon University). Gaussian is a federally registered
 trademark of Gaussian, Inc.
  
 This software contains proprietary and confidential information,
 including trade secrets, belonging to Gaussian, Inc.
  
 This software is provided under written license and may be
 used, copied, transmitted, or stored only in accord with that
 written license.
  
 The following legend is applicable only to US Government
 contracts under FAR:
  
                    RESTRICTED RIGHTS LEGEND
  
 Use, reproduction and disclosure by the US Government is
 subject to restrictions as set forth in subparagraphs (a)
 and (c) of the Commercial Computer Software - Restricted
 Rights clause in FAR 52.227-19.
  
 Gaussian, Inc.
 340 Quinnipiac St., Bldg. 40, Wallingford CT 06492
  
  
 ---------------------------------------------------------------
 Warning -- This program may not be used in any manner that
 competes with the business of Gaussian, Inc. or will provide
 assistance to any competitor of Gaussian, Inc.  The licensee
 of this program is prohibited from giving any competitor of
 Gaussian, Inc. access to this program.  By using this program,
 the user acknowledges that Gaussian, Inc. is engaged in the
 business of creating and licensing software in the field of
 computational chemistry and represents and warrants to the
 licensee that it is not a competitor of Gaussian, Inc. and that
 it will not use this program in any manner prohibited above.
 ---------------------------------------------------------------
  

 Cite this work as:
 Gaussian 16, Revision A.03,
 M. J. Frisch, G. W. Trucks, H. B. Schlegel, G. E. Scuseria, 
 M. A. Robb, J. R. Cheeseman, G. Scalmani, V. Barone, 
 G. A. Petersson, H. Nakatsuji, X. Li, M. Caricato, A. V. Marenich, 
 J. Bloino, B. G. Janesko, R. Gomperts, B. Mennucci, H. P. Hratchian, 
 J. V. Ortiz, A. F. Izmaylov, J. L. Sonnenberg, D. Williams-Young, 
 F. Ding, F. Lipparini, F. Egidi, J. Goings, B. Peng, A. Petrone, 
 T. Henderson, D. Ranasinghe, V. G. Zakrzewski, J. Gao, N. Rega, 
 G. Zheng, W. Liang, M. Hada, M. Ehara, K. Toyota, R. Fukuda, 
 J. Hasegawa, M. Ishida, T. Nakajima, Y. Honda, O. Kitao, H. Nakai, 
 T. Vreven, K. Throssell, J. A. Montgomery, Jr., J. E. Peralta, 
 F. Ogliaro, M. J. Bearpark, J. J. Heyd, E. N. Brothers, K. N. Kudin, 
 V. N. Staroverov, T. A. Keith, R. Kobayashi, J. Normand, 
 K. Raghavachari, A. P. Rendell, J. C. Burant, S. S. Iyengar, 
 J. Tomasi, M. Cossi, J. M. Millam, M. Klene, C. Adamo, R. Cammi, 
 J. W. Ochterski, R. L. Martin, K. Morokuma, O. Farkas, 
 J. B. Foresman, and D. J. Fox, Gaussian, Inc., Wallingford CT, 2016.
 
 ******************************************
 Gaussian 16:  ES64L-G16RevA.03 25-Dec-2016
                 8-Dec-2020 
 ******************************************
 %chk=JID_1293.chk
 %mem=8GB
 %nprocshared=4
 Will use up to    4 processors via shared memory.
 -----------------------------------------------------------
 # opt freq B3LYP/6-31G(d) empiricaldispersion=gd3bj scf=xqc
 -----------------------------------------------------------
 1/18=20,19=15,26=3,38=1/1,3;
 2/9=110,12=2,17=6,18=5,40=1/2;
 3/5=1,6=6,7=1,11=2,25=1,30=1,71=1,74=-5,124=41/1,2,3;
 4//1;
 5/5=2,8=3,13=1,38=5/2,8;
 6/7=2,8=2,9=2,10=2,28=1/1;
 7//1,2,3,16;
 1/18=20,19=15,26=3/3(2);
 2/9=110/2;
 99//99;
 2/9=110/2;
 3/5=1,6=6,7=1,11=2,25=1,30=1,71=1,74=-5,124=41/1,2,3;
 4/5=5,16=3,69=1/1;
 5/5=2,8=3,13=1,38=5/2,8;
 7//1,2,3,16;
 1/18=20,19=15,26=3/3(-5);
 2/9=110/2;
 6/7=2,8=2,9=2,10=2,19=2,28=1/1;
 99/9=1/99;
 -------------------------------
 CID_147252934_JID_1293_neutraal
 -------------------------------
 Symbolic Z-matrix:
 Charge =  0 Multiplicity = 1
 C                     0.018    -1.378     0.046 
 C                    -1.14798  -0.72792  -0.02944 
 N                    -1.17027   0.6302   -0.16986 
 C                    -0.04429   1.41169  -0.22716 
 O                    -0.10387   2.6278   -0.39748 
 C                     1.2915    0.69466  -0.10563 
 C                     1.28613  -0.65562  -0.01276 
 C                     2.52845  -1.51642   0.04356 
 N                     3.64993  -1.01978  -0.72783 
 O                     2.96516  -1.60115   1.37849 
 N                     2.42521   1.49796  -0.11553 
 H                     0.03211  -2.45636   0.17521 
 H                    -2.10682  -1.23389   0.01832 
 H                    -2.04953   1.12692  -0.23975 
 H                     2.31094  -2.53455  -0.29869 
 H                     4.44857  -1.59863  -0.46802 
 H                     3.46919  -1.22836  -1.70877 
 H                     3.16574  -0.6777    1.61711 
 H                     2.23633   2.3868   -0.5816 
 H                     3.23121   0.99452  -0.49731 
 

 GradGradGradGradGradGradGradGradGradGradGradGradGradGradGradGradGradGrad
 Berny optimization.
 Initialization pass.
                           ----------------------------
                           !    Initial Parameters    !
                           ! (Angstroms and Degrees)  !
 --------------------------                            --------------------------
 ! Name  Definition              Value          Derivative Info.                !
 --------------------------------------------------------------------------------
 ! R1    R(1,2)                  1.3371         estimate D2E/DX2                !
 ! R2    R(1,7)                  1.4606         estimate D2E/DX2                !
 ! R3    R(1,12)                 1.0862         estimate D2E/DX2                !
 ! R4    R(2,3)                  1.3655         estimate D2E/DX2                !
 ! R5    R(2,13)                 1.0852         estimate D2E/DX2                !
 ! R6    R(3,4)                  1.3718         estimate D2E/DX2                !
 ! R7    R(3,14)                 1.0123         estimate D2E/DX2                !
 ! R8    R(4,5)                  1.2294         estimate D2E/DX2                !
 ! R9    R(4,6)                  1.5209         estimate D2E/DX2                !
 ! R10   R(6,7)                  1.3535         estimate D2E/DX2                !
 ! R11   R(6,11)                 1.3895         estimate D2E/DX2                !
 ! R12   R(7,8)                  1.5125         estimate D2E/DX2                !
 ! R13   R(8,9)                  1.4489         estimate D2E/DX2                !
 ! R14   R(8,10)                 1.4071         estimate D2E/DX2                !
 ! R15   R(8,15)                 1.0959         estimate D2E/DX2                !
 ! R16   R(9,16)                 1.02           estimate D2E/DX2                !
 ! R17   R(9,17)                 1.019          estimate D2E/DX2                !
 ! R18   R(10,18)                0.9746         estimate D2E/DX2                !
 ! R19   R(11,19)                1.0212         estimate D2E/DX2                !
 ! R20   R(11,20)                1.0241         estimate D2E/DX2                !
 ! A1    A(2,1,7)              120.9559         estimate D2E/DX2                !
 ! A2    A(2,1,12)             120.0488         estimate D2E/DX2                !
 ! A3    A(7,1,12)             118.9811         estimate D2E/DX2                !
 ! A4    A(1,2,3)              120.2374         estimate D2E/DX2                !
 ! A5    A(1,2,13)             122.7737         estimate D2E/DX2                !
 ! A6    A(3,2,13)             116.9887         estimate D2E/DX2                !
 ! A7    A(2,3,4)              123.8818         estimate D2E/DX2                !
 ! A8    A(2,3,14)             120.6175         estimate D2E/DX2                !
 ! A9    A(4,3,14)             115.5006         estimate D2E/DX2                !
 ! A10   A(3,4,5)              121.9731         estimate D2E/DX2                !
 ! A11   A(3,4,6)              116.6782         estimate D2E/DX2                !
 ! A12   A(5,4,6)              121.3301         estimate D2E/DX2                !
 ! A13   A(4,6,7)              118.1853         estimate D2E/DX2                !
 ! A14   A(4,6,11)             116.3258         estimate D2E/DX2                !
 ! A15   A(7,6,11)             125.4846         estimate D2E/DX2                !
 ! A16   A(1,7,6)              119.9737         estimate D2E/DX2                !
 ! A17   A(1,7,8)              115.478          estimate D2E/DX2                !
 ! A18   A(6,7,8)              124.5477         estimate D2E/DX2                !
 ! A19   A(7,8,9)              114.8887         estimate D2E/DX2                !
 ! A20   A(7,8,10)             108.937          estimate D2E/DX2                !
 ! A21   A(7,8,15)             110.7378         estimate D2E/DX2                !
 ! A22   A(9,8,10)             106.5886         estimate D2E/DX2                !
 ! A23   A(9,8,15)             107.8057         estimate D2E/DX2                !
 ! A24   A(10,8,15)            107.5738         estimate D2E/DX2                !
 ! A25   A(8,9,16)             106.016          estimate D2E/DX2                !
 ! A26   A(8,9,17)             107.7609         estimate D2E/DX2                !
 ! A27   A(16,9,17)            105.54           estimate D2E/DX2                !
 ! A28   A(8,10,18)            103.8328         estimate D2E/DX2                !
 ! A29   A(6,11,19)            110.8253         estimate D2E/DX2                !
 ! A30   A(6,11,20)            111.1368         estimate D2E/DX2                !
 ! A31   A(19,11,20)           113.7831         estimate D2E/DX2                !
 ! D1    D(7,1,2,3)              0.3101         estimate D2E/DX2                !
 ! D2    D(7,1,2,13)          -179.5442         estimate D2E/DX2                !
 ! D3    D(12,1,2,3)           178.9245         estimate D2E/DX2                !
 ! D4    D(12,1,2,13)           -0.9298         estimate D2E/DX2                !
 ! D5    D(2,1,7,6)              1.95           estimate D2E/DX2                !
 ! D6    D(2,1,7,8)           -178.3033         estimate D2E/DX2                !
 ! D7    D(12,1,7,6)          -176.679          estimate D2E/DX2                !
 ! D8    D(12,1,7,8)             3.0677         estimate D2E/DX2                !
 ! D9    D(1,2,3,4)             -0.7703         estimate D2E/DX2                !
 ! D10   D(1,2,3,14)           179.1933         estimate D2E/DX2                !
 ! D11   D(13,2,3,4)           179.0923         estimate D2E/DX2                !
 ! D12   D(13,2,3,14)           -0.9441         estimate D2E/DX2                !
 ! D13   D(2,3,4,5)            177.6081         estimate D2E/DX2                !
 ! D14   D(2,3,4,6)             -0.8416         estimate D2E/DX2                !
 ! D15   D(14,3,4,5)            -2.3572         estimate D2E/DX2                !
 ! D16   D(14,3,4,6)           179.1931         estimate D2E/DX2                !
 ! D17   D(3,4,6,7)              2.9873         estimate D2E/DX2                !
 ! D18   D(3,4,6,11)          -177.7294         estimate D2E/DX2                !
 ! D19   D(5,4,6,7)           -175.4731         estimate D2E/DX2                !
 ! D20   D(5,4,6,11)             3.8102         estimate D2E/DX2                !
 ! D21   D(4,6,7,1)             -3.4906         estimate D2E/DX2                !
 ! D22   D(4,6,7,8)            176.7871         estimate D2E/DX2                !
 ! D23   D(11,6,7,1)           177.2983         estimate D2E/DX2                !
 ! D24   D(11,6,7,8)            -2.4241         estimate D2E/DX2                !
 ! D25   D(4,6,11,19)          -23.7326         estimate D2E/DX2                !
 ! D26   D(4,6,11,20)         -151.2959         estimate D2E/DX2                !
 ! D27   D(7,6,11,19)          155.4916         estimate D2E/DX2                !
 ! D28   D(7,6,11,20)           27.9283         estimate D2E/DX2                !
 ! D29   D(1,7,8,9)            146.3756         estimate D2E/DX2                !
 ! D30   D(1,7,8,10)           -94.1579         estimate D2E/DX2                !
 ! D31   D(1,7,8,15)            23.9563         estimate D2E/DX2                !
 ! D32   D(6,7,8,9)            -33.8908         estimate D2E/DX2                !
 ! D33   D(6,7,8,10)            85.5757         estimate D2E/DX2                !
 ! D34   D(6,7,8,15)          -156.3101         estimate D2E/DX2                !
 ! D35   D(7,8,9,16)           170.3173         estimate D2E/DX2                !
 ! D36   D(7,8,9,17)           -77.0622         estimate D2E/DX2                !
 ! D37   D(10,8,9,16)           49.5536         estimate D2E/DX2                !
 ! D38   D(10,8,9,17)          162.1741         estimate D2E/DX2                !
 ! D39   D(15,8,9,16)          -65.6967         estimate D2E/DX2                !
 ! D40   D(15,8,9,17)           46.9238         estimate D2E/DX2                !
 ! D41   D(7,8,10,18)          -61.469          estimate D2E/DX2                !
 ! D42   D(9,8,10,18)           63.0354         estimate D2E/DX2                !
 ! D43   D(15,8,10,18)         178.4421         estimate D2E/DX2                !
 --------------------------------------------------------------------------------
 Trust Radius=3.00D-01 FncErr=1.00D-07 GrdErr=1.00D-06 EigMax=2.50D+02 EigMin=1.00D-04
 Number of steps in this run=    104 maximum allowed number of steps=    120.
 GradGradGradGradGradGradGradGradGradGradGradGradGradGradGradGradGradGrad

                          Input orientation:                          
 ---------------------------------------------------------------------
 Center     Atomic      Atomic             Coordinates (Angstroms)
 Number     Number       Type             X           Y           Z
 ---------------------------------------------------------------------
      1          6           0        0.018000   -1.378000    0.046000
      2          6           0       -1.147980   -0.727920   -0.029440
      3          7           0       -1.170270    0.630200   -0.169860
      4          6           0       -0.044290    1.411690   -0.227160
      5          8           0       -0.103870    2.627800   -0.397480
      6          6           0        1.291500    0.694660   -0.105630
      7          6           0        1.286130   -0.655620   -0.012760
      8          6           0        2.528450   -1.516420    0.043560
      9          7           0        3.649930   -1.019780   -0.727830
     10          8           0        2.965160   -1.601150    1.378490
     11          7           0        2.425210    1.497960   -0.115530
     12          1           0        0.032110   -2.456360    0.175210
     13          1           0       -2.106820   -1.233890    0.018320
     14          1           0       -2.049530    1.126920   -0.239750
     15          1           0        2.310940   -2.534550   -0.298690
     16          1           0        4.448570   -1.598630   -0.468020
     17          1           0        3.469190   -1.228360   -1.708770
     18          1           0        3.165740   -0.677700    1.617110
     19          1           0        2.236330    2.386800   -0.581600
     20          1           0        3.231210    0.994520   -0.497310
 ---------------------------------------------------------------------
                    Distance matrix (angstroms):
                    1          2          3          4          5
     1  C    0.000000
     2  C    1.337088   0.000000
     3  N    2.343384   1.365542   0.000000
     4  C    2.803724   2.415607   1.371802   0.000000
     5  O    4.032116   3.533621   2.275835   1.229424   0.000000
     6  C    2.437358   2.824996   2.463451   1.520933   2.401929
     7  C    1.460630   2.435241   2.777033   2.467743   3.586218
     8  C    2.514264   3.760744   4.281828   3.907187   4.929319
     9  N    3.730690   4.857249   5.125241   4.450840   5.244520
    10  O    3.242079   4.434266   4.947534   4.551055   5.518789
    11  N    3.753918   4.210658   3.699113   2.473527   2.784292
    12  H    1.086165   2.102855   3.330412   3.889672   5.118120
    13  H    2.129881   1.085201   2.094605   3.363537   4.370051
    14  H    3.260515   2.073030   1.012281   2.025399   2.462339
    15  H    2.591137   3.911590   4.706492   4.596198   5.700081
    16  H    4.465741   5.680833   6.052103   5.413486   6.212278
    17  H    3.874574   4.938507   5.229443   4.637842   5.418137
    18  H    3.587070   4.617557   4.868762   4.251020   5.067075
    19  H    4.414588   4.632485   3.854880   2.505533   2.359771
    20  H    4.030974   4.728954   4.428654   3.312991   3.714879
                    6          7          8          9         10
     6  C    0.000000
     7  C    1.353481   0.000000
     8  C    2.537948   1.512451   0.000000
     9  N    2.981380   2.496295   1.448935   0.000000
    10  O    3.205385   2.376709   1.407101   2.289866   0.000000
    11  N    1.389492   2.438436   3.020340   2.865984   3.482546
    12  H    3.404976   2.202399   2.670680   3.995981   3.283603
    13  H    3.909379   3.442016   4.643941   5.808851   5.264022
    14  H    3.371545   3.788879   5.293903   6.109860   5.933648
    15  H    3.391803   2.159252   1.095917   2.066781   2.027849
    16  H    3.918877   3.331299   1.988802   1.019997   2.368567
    17  H    3.318192   2.823160   2.009634   1.019027   3.150269
    18  H    2.892055   2.487950   1.893581   2.418719   0.974644
    19  H    1.995642   3.237712   3.963746   3.691129   4.502987
    20  H    2.001451   2.596360   2.662937   2.070234   3.213551
                   11         12         13         14         15
    11  N    0.000000
    12  H    4.631210   0.000000
    13  H    5.293413   2.468617   0.000000
    14  H    4.491815   4.164770   2.375564   0.000000
    15  H    4.038285   2.328897   4.616147   5.694167   0.000000
    16  H    3.715791   4.544729   6.583517   7.050251   2.339675
    17  H    3.325828   4.107418   5.837359   6.177510   2.244104
    18  H    2.878180   3.881024   5.537632   5.822682   2.801583
    19  H    1.021241   5.374714   5.686146   4.480263   4.930040
    20  H    1.024131   4.753430   5.807431   5.288675   3.652490
                   16         17         18         19         20
    16  H    0.000000
    17  H    1.623498   0.000000
    18  H    2.615632   3.384787   0.000000
    19  H    4.559666   3.982441   3.884493   0.000000
    20  H    2.864830   2.542728   2.696549   1.713282   0.000000
 Stoichiometry    C6H9N3O2
 Framework group  C1[X(C6H9N3O2)]
 Deg. of freedom    54
 Full point group                 C1      NOp   1
 Largest Abelian subgroup         C1      NOp   1
 Largest concise Abelian subgroup C1      NOp   1
                         Standard orientation:                         
 ---------------------------------------------------------------------
 Center     Atomic      Atomic             Coordinates (Angstroms)
 Number     Number       Type             X           Y           Z
 ---------------------------------------------------------------------
      1          6           0        0.216406    1.753293   -0.158565
      2          6           0        1.549618    1.850323   -0.127990
      3          7           0        2.318916    0.726129   -0.032746
      4          6           0        1.809010   -0.544560    0.052022
      5          8           0        2.534942   -1.535930    0.093153
      6          6           0        0.293545   -0.673346    0.056345
      7          6           0       -0.444134    0.452659   -0.084556
      8          6           0       -1.953859    0.483903   -0.169768
      9          7           0       -2.550641   -0.655149   -0.837469
     10          8           0       -2.484353    0.509037    1.133258
     11          7           0       -0.215219   -1.959250    0.191604
     12          1           0       -0.393021    2.650493   -0.216760
     13          1           0        2.070617    2.801179   -0.173745
     14          1           0        3.328985    0.792050   -0.021378
     15          1           0       -2.294872    1.389951   -0.683405
     16          1           0       -3.555124   -0.581292   -0.676367
     17          1           0       -2.424994   -0.528294   -1.840732
     18          1           0       -2.171351   -0.325115    1.528418
     19          1           0        0.467350   -2.653948   -0.115687
     20          1           0       -1.127207   -2.045635   -0.266283
 ---------------------------------------------------------------------
 Rotational constants (GHZ):           1.8760128           0.8847969           0.6623919
 Standard basis: 6-31G(d) (6D, 7F)
 There are   183 symmetry adapted cartesian basis functions of A   symmetry.
 There are   183 symmetry adapted basis functions of A   symmetry.
   183 basis functions,   344 primitive gaussians,   183 cartesian basis functions
    41 alpha electrons       41 beta electrons
       nuclear repulsion energy       628.1986406088 Hartrees.
 NAtoms=   20 NActive=   20 NUniq=   20 SFac= 1.00D+00 NAtFMM=   60 NAOKFM=F Big=F
 Integral buffers will be    131072 words long.
 Raffenetti 2 integral format.
 Two-electron integral symmetry is turned on.
 Nuclear repulsion after empirical dispersion term =      628.1619914874 Hartrees.
 One-electron integrals computed using PRISM.
 NBasis=   183 RedAO= T EigKep=  5.35D-04  NBF=   183
 NBsUse=   183 1.00D-06 EigRej= -1.00D+00 NBFU=   183
 ExpMin= 1.61D-01 ExpMax= 5.48D+03 ExpMxC= 8.25D+02 IAcc=3 IRadAn=         5 AccDes= 0.00D+00
 Harris functional with IExCor=  402 and IRadAn=       5 diagonalized for initial guess.
 HarFok:  IExCor=  402 AccDes= 0.00D+00 IRadAn=         5 IDoV= 1 UseB2=F ITyADJ=14
 ICtDFT=  3500011 ScaDFX=  1.000000  1.000000  1.000000  1.000000
 FoFCou: FMM=F IPFlag=           0 FMFlag=      100000 FMFlg1=           0
         NFxFlg=           0 DoJE=T BraDBF=F KetDBF=T FulRan=T
         wScrn=  0.000000 ICntrl=       500 IOpCl=  0 I1Cent=   200000004 NGrid=           0
         NMat0=    1 NMatS0=      1 NMatT0=    0 NMatD0=    1 NMtDS0=    0 NMtDT0=    0
 Petite list used in FoFCou.
 Keep R1 ints in memory in canonical form, NReq=145769765.
 Requested convergence on RMS density matrix=1.00D-08 within  32 cycles.
 Requested convergence on MAX density matrix=1.00D-06.
 Requested convergence on             energy=1.00D-06.
 No special actions if energy rises.
 Integral accuracy reduced to 1.0D-05 until final iterations.
 Initial convergence to 1.0D-05 achieved.  Increase integral accuracy.
 SCF Done:  E(RB3LYP) =  -548.781761570     A.U. after   15 cycles
            NFock= 15  Conv=0.58D-08     -V/T= 2.0089
 QCSCF skips out because SCF is already converged.

 **********************************************************************

            Population analysis using the SCF density.

 **********************************************************************

 Orbital symmetries:
       Occupied  (A) (A) (A) (A) (A) (A) (A) (A) (A) (A) (A) (A)
                 (A) (A) (A) (A) (A) (A) (A) (A) (A) (A) (A) (A)
                 (A) (A) (A) (A) (A) (A) (A) (A) (A) (A) (A) (A)
                 (A) (A) (A) (A) (A)
       Virtual   (A) (A) (A) (A) (A) (A) (A) (A) (A) (A) (A) (A)
                 (A) (A) (A) (A) (A) (A) (A) (A) (A) (A) (A) (A)
                 (A) (A) (A) (A) (A) (A) (A) (A) (A) (A) (A) (A)
                 (A) (A) (A) (A) (A) (A) (A) (A) (A) (A) (A) (A)
                 (A) (A) (A) (A) (A) (A) (A) (A) (A) (A) (A) (A)
                 (A) (A) (A) (A) (A) (A) (A) (A) (A) (A) (A) (A)
                 (A) (A) (A) (A) (A) (A) (A) (A) (A) (A) (A) (A)
                 (A) (A) (A) (A) (A) (A) (A) (A) (A) (A) (A) (A)
                 (A) (A) (A) (A) (A) (A) (A) (A) (A) (A) (A) (A)
                 (A) (A) (A) (A) (A) (A) (A) (A) (A) (A) (A) (A)
                 (A) (A) (A) (A) (A) (A) (A) (A) (A) (A) (A) (A)
                 (A) (A) (A) (A) (A) (A) (A) (A) (A) (A)
 The electronic state is 1-A.
 Alpha  occ. eigenvalues --  -19.14923 -19.10232 -14.38711 -14.33459 -14.32689
 Alpha  occ. eigenvalues --  -10.28390 -10.27016 -10.22875 -10.22713 -10.19111
 Alpha  occ. eigenvalues --  -10.18751  -1.04088  -1.03031  -0.95100  -0.90821
 Alpha  occ. eigenvalues --   -0.88833  -0.79987  -0.73764  -0.68119  -0.62878
 Alpha  occ. eigenvalues --   -0.60890  -0.55500  -0.53746  -0.52020  -0.49600
 Alpha  occ. eigenvalues --   -0.47752  -0.46697  -0.45334  -0.44465  -0.43307
 Alpha  occ. eigenvalues --   -0.41835  -0.38960  -0.37730  -0.35906  -0.33838
 Alpha  occ. eigenvalues --   -0.32916  -0.28731  -0.26824  -0.25283  -0.24571
 Alpha  occ. eigenvalues --   -0.18793
 Alpha virt. eigenvalues --   -0.01476   0.02224   0.06773   0.07367   0.09996
 Alpha virt. eigenvalues --    0.12059   0.13089   0.14026   0.14333   0.15959
 Alpha virt. eigenvalues --    0.17980   0.19046   0.23030   0.23819   0.24171
 Alpha virt. eigenvalues --    0.25939   0.28260   0.31386   0.34849   0.36024
 Alpha virt. eigenvalues --    0.39177   0.46127   0.49565   0.51060   0.52176
 Alpha virt. eigenvalues --    0.54364   0.55723   0.56533   0.58782   0.59965
 Alpha virt. eigenvalues --    0.62169   0.63335   0.64065   0.65141   0.67935
 Alpha virt. eigenvalues --    0.69591   0.69898   0.71117   0.72820   0.76345
 Alpha virt. eigenvalues --    0.77367   0.80497   0.81358   0.83366   0.84001
 Alpha virt. eigenvalues --    0.85003   0.85727   0.87784   0.88033   0.89563
 Alpha virt. eigenvalues --    0.90009   0.91793   0.93993   0.95083   0.97763
 Alpha virt. eigenvalues --    0.98973   1.01447   1.03569   1.04833   1.06159
 Alpha virt. eigenvalues --    1.06988   1.09663   1.13300   1.14202   1.15796
 Alpha virt. eigenvalues --    1.19114   1.20927   1.24492   1.31368   1.32001
 Alpha virt. eigenvalues --    1.33778   1.39041   1.40034   1.41509   1.43624
 Alpha virt. eigenvalues --    1.45253   1.48168   1.50856   1.59124   1.61483
 Alpha virt. eigenvalues --    1.64465   1.69071   1.70426   1.72761   1.76963
 Alpha virt. eigenvalues --    1.79701   1.80214   1.82928   1.83432   1.86686
 Alpha virt. eigenvalues --    1.91103   1.92160   1.93784   1.95806   1.99553
 Alpha virt. eigenvalues --    2.01397   2.04373   2.04770   2.08562   2.12417
 Alpha virt. eigenvalues --    2.15802   2.18511   2.20257   2.21875   2.22273
 Alpha virt. eigenvalues --    2.24951   2.28928   2.29075   2.33676   2.36471
 Alpha virt. eigenvalues --    2.40472   2.41878   2.47160   2.49973   2.54229
 Alpha virt. eigenvalues --    2.56661   2.61771   2.62325   2.63126   2.65601
 Alpha virt. eigenvalues --    2.66241   2.70366   2.77527   2.79678   2.83578
 Alpha virt. eigenvalues --    2.86074   2.88278   2.99618   3.00374   3.22532
 Alpha virt. eigenvalues --    3.41104   3.77916   3.83285   3.90517   4.00538
 Alpha virt. eigenvalues --    4.10211   4.15474   4.27473   4.31618   4.45089
 Alpha virt. eigenvalues --    4.59089   4.77907
          Condensed to atoms (all electrons):
               1          2          3          4          5          6
     1  C    4.966479   0.594476  -0.018531  -0.033227   0.000366  -0.008312
     2  C    0.594476   4.825025   0.282795  -0.021807   0.002950  -0.034388
     3  N   -0.018531   0.282795   7.095316   0.235280  -0.099242  -0.070565
     4  C   -0.033227  -0.021807   0.235280   4.403820   0.576235   0.318909
     5  O    0.000366   0.002950  -0.099242   0.576235   8.120464  -0.084198
     6  C   -0.008312  -0.034388  -0.070565   0.318909  -0.084198   5.024965
     7  C    0.431564  -0.027499  -0.031374  -0.010744   0.005010   0.453509
     8  C   -0.047494   0.007537  -0.000242   0.004323  -0.000059  -0.038466
     9  N    0.004074  -0.000170   0.000003  -0.000255   0.000000  -0.009263
    10  O    0.003275  -0.000048  -0.000001   0.000043   0.000000  -0.007049
    11  N    0.006071   0.000101   0.003877  -0.060682  -0.010481   0.352687
    12  H    0.361937  -0.044892   0.004263   0.000411   0.000002   0.004890
    13  H   -0.029734   0.364642  -0.048848   0.001667  -0.000103   0.000176
    14  H    0.004220  -0.027958   0.290033  -0.009701   0.008260   0.008055
    15  H   -0.004757   0.000534   0.000006  -0.000098   0.000000   0.005545
    16  H   -0.000228   0.000004   0.000000   0.000007  -0.000000   0.000277
    17  H   -0.000297  -0.000004  -0.000001   0.000022   0.000000   0.000918
    18  H   -0.000389   0.000054  -0.000005   0.000039   0.000000   0.005685
    19  H   -0.000091  -0.000058   0.000781  -0.011229   0.026419  -0.033456
    20  H    0.000012   0.000011  -0.000084   0.004484   0.000158  -0.021127
               7          8          9         10         11         12
     1  C    0.431564  -0.047494   0.004074   0.003275   0.006071   0.361937
     2  C   -0.027499   0.007537  -0.000170  -0.000048   0.000101  -0.044892
     3  N   -0.031374  -0.000242   0.000003  -0.000001   0.003877   0.004263
     4  C   -0.010744   0.004323  -0.000255   0.000043  -0.060682   0.000411
     5  O    0.005010  -0.000059   0.000000   0.000000  -0.010481   0.000002
     6  C    0.453509  -0.038466  -0.009263  -0.007049   0.352687   0.004890
     7  C    5.052086   0.277225  -0.032631  -0.052236  -0.085122  -0.034434
     8  C    0.277225   4.874648   0.215216   0.264106  -0.014776  -0.008847
     9  N   -0.032631   0.215216   7.106557  -0.073929  -0.028939   0.000217
    10  O   -0.052236   0.264106  -0.073929   8.265231   0.000001   0.000768
    11  N   -0.085122  -0.014776  -0.028939   0.000001   7.069408  -0.000096
    12  H   -0.034434  -0.008847   0.000217   0.000768  -0.000096   0.579238
    13  H    0.003556  -0.000144   0.000001   0.000001   0.000007  -0.004641
    14  H   -0.000401   0.000018  -0.000000  -0.000000  -0.000083  -0.000154
    15  H   -0.068909   0.402345  -0.066973  -0.046661  -0.000271   0.006118
    16  H    0.007288  -0.027127   0.290853   0.008828   0.000471  -0.000018
    17  H    0.000570  -0.022375   0.283659   0.005608   0.000477  -0.000043
    18  H   -0.019100  -0.018713   0.000860   0.233770   0.002241  -0.000003
    19  H    0.007102  -0.000119   0.000895  -0.000013   0.289292   0.000002
    20  H   -0.016235  -0.000144   0.045099  -0.000423   0.281457  -0.000001
              13         14         15         16         17         18
     1  C   -0.029734   0.004220  -0.004757  -0.000228  -0.000297  -0.000389
     2  C    0.364642  -0.027958   0.000534   0.000004  -0.000004   0.000054
     3  N   -0.048848   0.290033   0.000006   0.000000  -0.000001  -0.000005
     4  C    0.001667  -0.009701  -0.000098   0.000007   0.000022   0.000039
     5  O   -0.000103   0.008260   0.000000  -0.000000   0.000000   0.000000
     6  C    0.000176   0.008055   0.005545   0.000277   0.000918   0.005685
     7  C    0.003556  -0.000401  -0.068909   0.007288   0.000570  -0.019100
     8  C   -0.000144   0.000018   0.402345  -0.027127  -0.022375  -0.018713
     9  N    0.000001  -0.000000  -0.066973   0.290853   0.283659   0.000860
    10  O    0.000001  -0.000000  -0.046661   0.008828   0.005608   0.233770
    11  N    0.000007  -0.000083  -0.000271   0.000471   0.000477   0.002241
    12  H   -0.004641  -0.000154   0.006118  -0.000018  -0.000043  -0.000003
    13  H    0.564966  -0.006200  -0.000003  -0.000000   0.000000   0.000000
    14  H   -0.006200   0.393843  -0.000001   0.000000  -0.000000  -0.000000
    15  H   -0.000003  -0.000001   0.641973  -0.004608  -0.002654   0.008839
    16  H   -0.000000   0.000000  -0.004608   0.434492  -0.024353  -0.001648
    17  H    0.000000  -0.000000  -0.002654  -0.024353   0.456544  -0.000152
    18  H    0.000000  -0.000000   0.008839  -0.001648  -0.000152   0.382371
    19  H    0.000001  -0.000051   0.000015  -0.000019  -0.000050   0.000033
    20  H    0.000000   0.000003   0.000729  -0.000426  -0.001509   0.001422
              19         20
     1  C   -0.000091   0.000012
     2  C   -0.000058   0.000011
     3  N    0.000781  -0.000084
     4  C   -0.011229   0.004484
     5  O    0.026419   0.000158
     6  C   -0.033456  -0.021127
     7  C    0.007102  -0.016235
     8  C   -0.000119  -0.000144
     9  N    0.000895   0.045099
    10  O   -0.000013  -0.000423
    11  N    0.289292   0.281457
    12  H    0.000002  -0.000001
    13  H    0.000001   0.000000
    14  H   -0.000051   0.000003
    15  H    0.000015   0.000729
    16  H   -0.000019  -0.000426
    17  H   -0.000050  -0.001509
    18  H    0.000033   0.001422
    19  H    0.405132  -0.018965
    20  H   -0.018965   0.368766
 Mulliken charges:
               1
     1  C   -0.229412
     2  C    0.078695
     3  N   -0.643463
     4  C    0.602500
     5  O   -0.545781
     6  C    0.131210
     7  C    0.140775
     8  C    0.133089
     9  N   -0.735274
    10  O   -0.601272
    11  N   -0.805640
    12  H    0.135281
    13  H    0.154656
    14  H    0.340116
    15  H    0.128828
    16  H    0.316206
    17  H    0.303639
    18  H    0.404694
    19  H    0.334379
    20  H    0.356773
 Sum of Mulliken charges =   0.00000
 Mulliken charges with hydrogens summed into heavy atoms:
               1
     1  C   -0.094131
     2  C    0.233351
     3  N   -0.303347
     4  C    0.602500
     5  O   -0.545781
     6  C    0.131210
     7  C    0.140775
     8  C    0.261918
     9  N   -0.115429
    10  O   -0.196579
    11  N   -0.114488
 Electronic spatial extent (au):  <R**2>=           1714.3190
 Charge=             -0.0000 electrons
 Dipole moment (field-independent basis, Debye):
    X=             -1.3331    Y=              2.3855    Z=             -2.5658  Tot=              3.7485
 Quadrupole moment (field-independent basis, Debye-Ang):
   XX=            -59.0287   YY=            -62.6349   ZZ=            -63.1750
   XY=             11.8165   XZ=              4.9265   YZ=             -0.1382
 Traceless Quadrupole moment (field-independent basis, Debye-Ang):
   XX=              2.5842   YY=             -1.0220   ZZ=             -1.5622
   XY=             11.8165   XZ=              4.9265   YZ=             -0.1382
 Octapole moment (field-independent basis, Debye-Ang**2):
  XXX=             -8.1916  YYY=              2.5401  ZZZ=             -0.8012  XYY=             -2.7965
  XXY=             22.7879  XXZ=            -16.9977  XZZ=             -8.6700  YZZ=             -8.0531
  YYZ=             -7.0496  XYZ=              6.1569
 Hexadecapole moment (field-independent basis, Debye-Ang**3):
 XXXX=          -1184.9753 YYYY=           -594.9287 ZZZZ=           -135.9868 XXXY=            116.0064
 XXXZ=             45.9240 YYYX=             16.6272 YYYZ=             12.9173 ZZZX=              6.2281
 ZZZY=              2.8962 XXYY=           -344.9586 XXZZ=           -234.6161 YYZZ=           -145.7812
 XXYZ=            -11.9912 YYXZ=             -1.2725 ZZXY=              4.5551
 N-N= 6.281619914874D+02 E-N=-2.537253668828D+03  KE= 5.439385932274D+02
 Calling FoFJK, ICntrl=      2127 FMM=F ISym2X=0 I1Cent= 0 IOpClX= 0 NMat=1 NMatS=1 NMatT=0.
 ***** Axes restored to original set *****
 -------------------------------------------------------------------
 Center     Atomic                   Forces (Hartrees/Bohr)
 Number     Number              X              Y              Z
 -------------------------------------------------------------------
      1        6           0.027556871   -0.001263594    0.001913212
      2        6          -0.017626375   -0.008766234    0.001787833
      3        7          -0.000359400    0.002888346    0.000660370
      4        6           0.030777215    0.004880644    0.001773997
      5        8          -0.000823650    0.005542788   -0.001032078
      6        6          -0.021087882    0.020127965   -0.004184980
      7        6          -0.016279351   -0.033229391   -0.010983379
      8        6          -0.001363447   -0.000142549    0.007583941
      9        7           0.007225101    0.006683876   -0.014338103
     10        8           0.004623701   -0.004391850    0.009045605
     11        7          -0.006699050    0.001873168   -0.008172697
     12        1           0.000225872    0.001538014   -0.001033746
     13        1          -0.000091368    0.002371829   -0.000152708
     14        1           0.001347449    0.001493832   -0.000820724
     15        1          -0.007860953   -0.003381120    0.008661503
     16        1           0.001005255    0.001747474    0.000911636
     17        1           0.001395830    0.004011995   -0.004153284
     18        1          -0.000669641   -0.002009209    0.003865488
     19        1          -0.000090110   -0.001647569    0.005219451
     20        1          -0.001206066    0.001671588    0.003448662
 -------------------------------------------------------------------
 Cartesian Forces:  Max     0.033229391 RMS     0.009482878

 GradGradGradGradGradGradGradGradGradGradGradGradGradGradGradGradGradGrad
 Berny optimization.
 FormGI is forming the generalized inverse of G from B-inverse, IUseBI=4.
 Internal  Forces:  Max     0.024863766 RMS     0.006674933
 Search for a local minimum.
 Step number   1 out of a maximum of  104
 All quantities printed in internal units (Hartrees-Bohrs-Radians)
 Mixed Optimization -- RFO/linear search
 Second derivative matrix not updated -- first step.
 ITU=  0
     Eigenvalues ---    0.00601   0.01044   0.01101   0.01365   0.01598
     Eigenvalues ---    0.01619   0.01698   0.01831   0.01955   0.02108
     Eigenvalues ---    0.02199   0.02444   0.02604   0.05230   0.05403
     Eigenvalues ---    0.05588   0.06446   0.08889   0.15996   0.16000
     Eigenvalues ---    0.16000   0.16000   0.16000   0.16000   0.16000
     Eigenvalues ---    0.16000   0.18870   0.19797   0.22077   0.23383
     Eigenvalues ---    0.24890   0.24989   0.24998   0.25000   0.29810
     Eigenvalues ---    0.31105   0.34138   0.35260   0.35373   0.35942
     Eigenvalues ---    0.38385   0.43686   0.44141   0.44339   0.44464
     Eigenvalues ---    0.44494   0.45593   0.47407   0.48046   0.50084
     Eigenvalues ---    0.52439   0.53383   0.56306   0.91327
 RFO step:  Lambda=-1.51475660D-02 EMin= 6.01246689D-03
 Linear search not attempted -- first point.
 Iteration  1 RMS(Cart)=  0.05883803 RMS(Int)=  0.00212385
 Iteration  2 RMS(Cart)=  0.00361145 RMS(Int)=  0.00061149
 Iteration  3 RMS(Cart)=  0.00000781 RMS(Int)=  0.00061147
 Iteration  4 RMS(Cart)=  0.00000000 RMS(Int)=  0.00061147
 Variable       Old X    -DE/DX   Delta X   Delta X   Delta X     New X
                                 (Linear)    (Quad)   (Total)
    R1        2.52673   0.01707   0.00000   0.02975   0.02968   2.55641
    R2        2.76019  -0.01529   0.00000  -0.03925  -0.03905   2.72114
    R3        2.05255  -0.00165   0.00000  -0.00448  -0.00448   2.04808
    R4        2.58050   0.01467   0.00000   0.02824   0.02796   2.60846
    R5        2.05073  -0.00103   0.00000  -0.00280  -0.00280   2.04794
    R6        2.59233   0.00734   0.00000   0.01375   0.01354   2.60587
    R7        1.91293  -0.00038   0.00000  -0.00081  -0.00081   1.91213
    R8        2.32327   0.00567   0.00000   0.00610   0.00610   2.32938
    R9        2.87415  -0.02486   0.00000  -0.08010  -0.08001   2.79414
   R10        2.55771   0.02224   0.00000   0.03918   0.03944   2.59715
   R11        2.62576  -0.00543   0.00000  -0.01110  -0.01110   2.61466
   R12        2.85812   0.00258   0.00000   0.00790   0.00790   2.86601
   R13        2.73809   0.02108   0.00000   0.05282   0.05282   2.79091
   R14        2.65904   0.01386   0.00000   0.03015   0.03015   2.68918
   R15        2.07098   0.00200   0.00000   0.00560   0.00560   2.07658
   R16        1.92752   0.00003   0.00000   0.00006   0.00006   1.92758
   R17        1.92568   0.00293   0.00000   0.00637   0.00637   1.93205
   R18        1.84181  -0.00109   0.00000  -0.00203  -0.00203   1.83978
   R19        1.92987  -0.00380   0.00000  -0.00832  -0.00832   1.92154
   R20        1.93533  -0.00306   0.00000  -0.00676  -0.00676   1.92856
    A1        2.11108  -0.00438   0.00000  -0.01507  -0.01482   2.09626
    A2        2.09525   0.00242   0.00000   0.00891   0.00878   2.10403
    A3        2.07661   0.00196   0.00000   0.00619   0.00608   2.08269
    A4        2.09854  -0.00337   0.00000  -0.01004  -0.01027   2.08827
    A5        2.14281   0.00388   0.00000   0.01756   0.01767   2.16048
    A6        2.04184  -0.00051   0.00000  -0.00751  -0.00740   2.03444
    A7        2.16215   0.00450   0.00000   0.02004   0.01969   2.18184
    A8        2.10517  -0.00031   0.00000   0.00103   0.00120   2.10637
    A9        2.01587  -0.00419   0.00000  -0.02107  -0.02090   1.99496
   A10        2.12883   0.00318   0.00000   0.01349   0.01348   2.14231
   A11        2.03642  -0.00762   0.00000  -0.03174  -0.03174   2.00468
   A12        2.11761   0.00444   0.00000   0.01828   0.01829   2.13589
   A13        2.06272   0.01183   0.00000   0.04098   0.04108   2.10380
   A14        2.03027  -0.01479   0.00000  -0.05375  -0.05426   1.97601
   A15        2.19012   0.00298   0.00000   0.01332   0.01274   2.20286
   A16        2.09394  -0.00096   0.00000  -0.00451  -0.00428   2.08966
   A17        2.01547   0.00801   0.00000   0.03057   0.02988   2.04535
   A18        2.17377  -0.00705   0.00000  -0.02625  -0.02682   2.14694
   A19        2.00519  -0.01509   0.00000  -0.06034  -0.06061   1.94458
   A20        1.90131   0.00929   0.00000   0.04825   0.04920   1.95051
   A21        1.93274  -0.00217   0.00000  -0.04001  -0.03909   1.89365
   A22        1.86032   0.00619   0.00000   0.04447   0.04476   1.90508
   A23        1.88157   0.01017   0.00000   0.06702   0.06637   1.94793
   A24        1.87752  -0.00801   0.00000  -0.05817  -0.05884   1.81868
   A25        1.85033   0.00159   0.00000   0.01784   0.01715   1.86748
   A26        1.88078   0.00745   0.00000   0.05091   0.05027   1.93105
   A27        1.84202  -0.00045   0.00000   0.01884   0.01740   1.85942
   A28        1.81222   0.00729   0.00000   0.04161   0.04161   1.85383
   A29        1.93427   0.00128   0.00000   0.01831   0.01750   1.95177
   A30        1.93970   0.00288   0.00000   0.02742   0.02662   1.96632
   A31        1.98589   0.00116   0.00000   0.02532   0.02408   2.00997
    D1        0.00541  -0.00015   0.00000   0.00253   0.00231   0.00772
    D2       -3.13364  -0.00014   0.00000  -0.00211  -0.00209  -3.13573
    D3        3.12282  -0.00013   0.00000   0.00468   0.00416   3.12699
    D4       -0.01623  -0.00012   0.00000   0.00004  -0.00024  -0.01647
    D5        0.03403  -0.00017   0.00000   0.00262   0.00233   0.03637
    D6       -3.11198  -0.00150   0.00000  -0.04394  -0.04507   3.12614
    D7       -3.08363  -0.00020   0.00000   0.00045   0.00046  -3.08317
    D8        0.05354  -0.00153   0.00000  -0.04611  -0.04694   0.00660
    D9       -0.01344  -0.00021   0.00000  -0.00579  -0.00561  -0.01906
   D10        3.12751  -0.00025   0.00000  -0.01050  -0.01041   3.11711
   D11        3.12575  -0.00021   0.00000  -0.00138  -0.00148   3.12427
   D12       -0.01648  -0.00025   0.00000  -0.00608  -0.00628  -0.02275
   D13        3.09985   0.00031   0.00000   0.00407   0.00382   3.10366
   D14       -0.01469   0.00029   0.00000   0.00246   0.00254  -0.01215
   D15       -0.04114   0.00035   0.00000   0.00855   0.00833  -0.03281
   D16        3.12751   0.00032   0.00000   0.00694   0.00705   3.13456
   D17        0.05214  -0.00007   0.00000   0.00438   0.00410   0.05624
   D18       -3.10196   0.00131   0.00000   0.04989   0.04903  -3.05293
   D19       -3.06258  -0.00008   0.00000   0.00285   0.00290  -3.05968
   D20        0.06650   0.00130   0.00000   0.04836   0.04783   0.11433
   D21       -0.06092  -0.00044   0.00000  -0.00808  -0.00780  -0.06872
   D22        3.08552   0.00098   0.00000   0.04279   0.04233   3.12784
   D23        3.09444  -0.00183   0.00000  -0.05768  -0.05851   3.03593
   D24       -0.04231  -0.00041   0.00000  -0.00681  -0.00838  -0.05069
   D25       -0.41421   0.00233   0.00000   0.03115   0.03222  -0.38199
   D26       -2.64061  -0.00246   0.00000  -0.03797  -0.03777  -2.67839
   D27        2.71384   0.00388   0.00000   0.08058   0.08038   2.79422
   D28        0.48744  -0.00090   0.00000   0.01146   0.01038   0.49782
   D29        2.55474  -0.00142   0.00000  -0.02223  -0.02115   2.53359
   D30       -1.64336   0.00337   0.00000   0.03030   0.03024  -1.61313
   D31        0.41812  -0.00201   0.00000  -0.03488  -0.03571   0.38240
   D32       -0.59151  -0.00280   0.00000  -0.07113  -0.07017  -0.66167
   D33        1.49358   0.00199   0.00000  -0.01860  -0.01878   1.47480
   D34       -2.72813  -0.00339   0.00000  -0.08378  -0.08473  -2.81286
   D35        2.97260   0.00273   0.00000   0.02178   0.02166   2.99426
   D36       -1.34499   0.00627   0.00000   0.07422   0.07491  -1.27008
   D37        0.86487  -0.00408   0.00000  -0.03363  -0.03303   0.83185
   D38        2.83047  -0.00054   0.00000   0.01880   0.02022   2.85069
   D39       -1.14662  -0.00278   0.00000  -0.02070  -0.02240  -1.16902
   D40        0.81897   0.00076   0.00000   0.03173   0.03085   0.84982
   D41       -1.07284   0.00327   0.00000   0.01816   0.01720  -1.05563
   D42        1.10018  -0.00567   0.00000   0.00134   0.00310   1.10327
   D43        3.11440   0.00527   0.00000   0.07260   0.07180  -3.09699
         Item               Value     Threshold  Converged?
 Maximum Force            0.024864     0.000450     NO 
 RMS     Force            0.006675     0.000300     NO 
 Maximum Displacement     0.200466     0.001800     NO 
 RMS     Displacement     0.059306     0.001200     NO 
 Predicted change in Energy=-8.352201D-03
 GradGradGradGradGradGradGradGradGradGradGradGradGradGradGradGradGradGrad

                          Input orientation:                          
 ---------------------------------------------------------------------
 Center     Atomic      Atomic             Coordinates (Angstroms)
 Number     Number       Type             X           Y           Z
 ---------------------------------------------------------------------
      1          6           0        0.014015   -1.414940    0.044143
      2          6           0       -1.153333   -0.735088   -0.027630
      3          7           0       -1.136381    0.635900   -0.187124
      4          6           0        0.002600    1.409585   -0.262492
      5          8           0       -0.030050    2.628293   -0.444474
      6          6           0        1.271833    0.660678   -0.142383
      7          6           0        1.266807   -0.709537   -0.035975
      8          6           0        2.534804   -1.534519    0.072435
      9          7           0        3.608976   -0.986993   -0.780539
     10          8           0        2.999424   -1.613618    1.415176
     11          7           0        2.387061    1.478993   -0.110364
     12          1           0        0.017919   -2.489821    0.182806
     13          1           0       -2.128512   -1.204136    0.031279
     14          1           0       -1.999996    1.157562   -0.263845
     15          1           0        2.297962   -2.574325   -0.192608
     16          1           0        4.461404   -1.498263   -0.551568
     17          1           0        3.415075   -1.171602   -1.767259
     18          1           0        3.179687   -0.698673    1.694853
     19          1           0        2.199394    2.390089   -0.521028
     20          1           0        3.227020    1.012585   -0.454542
 ---------------------------------------------------------------------
                    Distance matrix (angstroms):
                    1          2          3          4          5
     1  C    0.000000
     2  C    1.352793   0.000000
     3  N    2.362803   1.380338   0.000000
     4  C    2.841143   2.447645   1.378966   0.000000
     5  O    4.072888   3.570414   2.293432   1.232653   0.000000
     6  C    2.434151   2.800493   2.408757   1.478594   2.378585
     7  C    1.439966   2.420289   2.758326   2.477944   3.604139
     8  C    2.523783   3.775110   4.272668   3.897689   4.916775
     9  N    3.713083   4.828034   5.050182   4.360952   5.140597
    10  O    3.291182   4.483179   4.973187   4.575509   5.534422
    11  N    3.745674   4.176529   3.623720   2.390317   2.697211
    12  H    1.083795   2.120189   3.352520   3.924779   5.156634
    13  H    2.152911   1.083721   2.101845   3.385185   4.395156
    14  H    3.281594   2.086807   1.011854   2.018392   2.465028
    15  H    2.572283   3.914261   4.701094   4.598380   5.705287
    16  H    4.487882   5.690537   6.001889   5.331048   6.100253
    17  H    3.861037   4.907872   5.145838   4.535618   5.296966
    18  H    3.641341   4.662975   4.894013   4.286004   5.093901
    19  H    4.424200   4.609876   3.783658   2.419532   2.243440
    20  H    4.057705   4.735410   4.387788   3.254440   3.635811
                    6          7          8          9         10
     6  C    0.000000
     7  C    1.374350   0.000000
     8  C    2.541679   1.516629   0.000000
     9  N    2.929898   2.473279   1.476887   0.000000
    10  O    3.253150   2.434166   1.423054   2.363340   0.000000
    11  N    1.383618   2.459709   3.022664   2.832543   3.502357
    12  H    3.406419   2.185634   2.694344   4.010263   3.343028
    13  H    3.882015   3.431814   4.675186   5.798704   5.327155
    14  H    3.311572   3.769614   5.284391   6.027159   5.957580
    15  H    3.394217   2.136643   1.098880   2.141038   1.999994
    16  H    3.873219   3.330671   2.025458   1.020029   2.453318
    17  H    3.254376   2.797482   2.071487   1.022396   3.239759
    18  H    2.977109   2.579727   1.935653   2.528830   0.973571
    19  H    1.998650   3.273022   3.983371   3.668644   4.518695
    20  H    2.010980   2.642601   2.691581   2.061668   3.231809
                   11         12         13         14         15
    11  N    0.000000
    12  H    4.631443   0.000000
    13  H    5.254488   2.506614   0.000000
    14  H    4.401493   4.192241   2.383534   0.000000
    15  H    4.055131   2.312286   4.639096   5.692494   0.000000
    16  H    3.655354   4.611621   6.622176   6.991844   2.442794
    17  H    3.290558   4.132932   5.828135   6.083441   2.386441
    18  H    2.937566   3.935896   5.585692   5.840481   2.803216
    19  H    1.016838   5.391450   5.652811   4.384078   4.976241
    20  H    1.020552   4.792848   5.816494   5.232502   3.714523
                   16         17         18         19         20
    16  H    0.000000
    17  H    1.636893   0.000000
    18  H    2.707129   3.502184   0.000000
    19  H    4.498544   3.964418   3.925754   0.000000
    20  H    2.799549   2.555242   2.747825   1.719870   0.000000
 Stoichiometry    C6H9N3O2
 Framework group  C1[X(C6H9N3O2)]
 Deg. of freedom    54
 Full point group                 C1      NOp   1
 Largest Abelian subgroup         C1      NOp   1
 Largest concise Abelian subgroup C1      NOp   1
                         Standard orientation:                         
 ---------------------------------------------------------------------
 Center     Atomic      Atomic             Coordinates (Angstroms)
 Number     Number       Type             X           Y           Z
 ---------------------------------------------------------------------
      1          6           0        0.187805    1.784049   -0.171299
      2          6           0        1.536473    1.875653   -0.118855
      3          7           0        2.295598    0.726982   -0.020785
      4          6           0        1.787869   -0.553031    0.052186
      5          8           0        2.506264   -1.553572    0.099723
      6          6           0        0.311834   -0.638196    0.034699
      7          6           0       -0.451320    0.494905   -0.115355
      8          6           0       -1.967138    0.470453   -0.158477
      9          7           0       -2.466794   -0.710146   -0.891775
     10          8           0       -2.532226    0.482496    1.147514
     11          7           0       -0.162551   -1.924469    0.221411
     12          1           0       -0.422982    2.677091   -0.234759
     13          1           0        2.078512    2.813532   -0.150925
     14          1           0        3.306090    0.775880   -0.001723
     15          1           0       -2.318165    1.407427   -0.612786
     16          1           0       -3.477817   -0.737560   -0.759340
     17          1           0       -2.307629   -0.604517   -1.896167
     18          1           0       -2.204802   -0.318952    1.592839
     19          1           0        0.537621   -2.623471   -0.013353
     20          1           0       -1.080040   -2.070385   -0.201021
 ---------------------------------------------------------------------
 Rotational constants (GHZ):           1.8428314           0.8931543           0.6671093
 Standard basis: 6-31G(d) (6D, 7F)
 There are   183 symmetry adapted cartesian basis functions of A   symmetry.
 There are   183 symmetry adapted basis functions of A   symmetry.
   183 basis functions,   344 primitive gaussians,   183 cartesian basis functions
    41 alpha electrons       41 beta electrons
       nuclear repulsion energy       627.6185630197 Hartrees.
 NAtoms=   20 NActive=   20 NUniq=   20 SFac= 1.00D+00 NAtFMM=   60 NAOKFM=F Big=F
 Integral buffers will be    131072 words long.
 Raffenetti 2 integral format.
 Two-electron integral symmetry is turned on.
 Nuclear repulsion after empirical dispersion term =      627.5819462815 Hartrees.
 One-electron integrals computed using PRISM.
 NBasis=   183 RedAO= T EigKep=  5.49D-04  NBF=   183
 NBsUse=   183 1.00D-06 EigRej= -1.00D+00 NBFU=   183
 Initial guess from the checkpoint file:  "JID_1293.chk"
 B after Tr=     0.000000    0.000000    0.000000
         Rot=    0.999978    0.002087    0.003722   -0.004984 Ang=   0.75 deg.
 ExpMin= 1.61D-01 ExpMax= 5.48D+03 ExpMxC= 8.25D+02 IAcc=2 IRadAn=         4 AccDes= 0.00D+00
 Harris functional with IExCor=  402 and IRadAn=       4 diagonalized for initial guess.
 HarFok:  IExCor=  402 AccDes= 0.00D+00 IRadAn=         4 IDoV= 1 UseB2=F ITyADJ=14
 ICtDFT=  3500011 ScaDFX=  1.000000  1.000000  1.000000  1.000000
 FoFCou: FMM=F IPFlag=           0 FMFlag=      100000 FMFlg1=           0
         NFxFlg=           0 DoJE=T BraDBF=F KetDBF=T FulRan=T
         wScrn=  0.000000 ICntrl=       500 IOpCl=  0 I1Cent=   200000004 NGrid=           0
         NMat0=    1 NMatS0=      1 NMatT0=    0 NMatD0=    1 NMtDS0=    0 NMtDT0=    0
 Petite list used in FoFCou.
 Keep R1 ints in memory in canonical form, NReq=145769765.
 Requested convergence on RMS density matrix=1.00D-08 within  32 cycles.
 Requested convergence on MAX density matrix=1.00D-06.
 Requested convergence on             energy=1.00D-06.
 No special actions if energy rises.
 Integral accuracy reduced to 1.0D-05 until final iterations.
 Initial convergence to 1.0D-05 achieved.  Increase integral accuracy.
 SCF Done:  E(RB3LYP) =  -548.789795750     A.U. after   13 cycles
            NFock= 13  Conv=0.49D-08     -V/T= 2.0092
 QCSCF skips out because SCF is already converged.
 Calling FoFJK, ICntrl=      2127 FMM=F ISym2X=0 I1Cent= 0 IOpClX= 0 NMat=1 NMatS=1 NMatT=0.
 ***** Axes restored to original set *****
 -------------------------------------------------------------------
 Center     Atomic                   Forces (Hartrees/Bohr)
 Number     Number              X              Y              Z
 -------------------------------------------------------------------
      1        6           0.008227114    0.004976217   -0.000314579
      2        6          -0.005494243   -0.000239480    0.000256620
      3        7          -0.001053185   -0.001740211    0.000576345
      4        6           0.008552463   -0.002952341   -0.000458740
      5        8          -0.003117357    0.002419165    0.000189685
      6        6          -0.001382819    0.009353054    0.000937768
      7        6          -0.004116732   -0.010233539   -0.001993175
      8        6          -0.000122291    0.002115475    0.001380426
      9        7           0.002154287   -0.003445008    0.002331886
     10        8           0.003234925    0.001372243   -0.005810955
     11        7           0.001065455   -0.003222886   -0.005286965
     12        1          -0.000777984   -0.000150894   -0.000706975
     13        1          -0.000013327    0.001406745   -0.000002300
     14        1          -0.000927050   -0.000299261   -0.000316363
     15        1           0.000213860   -0.000345332    0.001885430
     16        1          -0.000056114    0.000115681   -0.000100809
     17        1          -0.002177035    0.001218845    0.002236809
     18        1          -0.001615495   -0.000021692    0.000311635
     19        1          -0.001614434   -0.000343016    0.002937370
     20        1          -0.000980038    0.000016233    0.001946889
 -------------------------------------------------------------------
 Cartesian Forces:  Max     0.010233539 RMS     0.003143232

 GradGradGradGradGradGradGradGradGradGradGradGradGradGradGradGradGradGrad
 Berny optimization.
 Using GEDIIS/GDIIS optimizer.
 FormGI is forming the generalized inverse of G from B-inverse, IUseBI=4.
 Internal  Forces:  Max     0.005002862 RMS     0.001665107
 Search for a local minimum.
 Step number   2 out of a maximum of  104
 All quantities printed in internal units (Hartrees-Bohrs-Radians)
 Mixed Optimization -- RFO/linear search
 Update second derivatives using D2CorX and points    1    2
 DE= -8.03D-03 DEPred=-8.35D-03 R= 9.62D-01
 TightC=F SS=  1.41D+00  RLast= 3.20D-01 DXNew= 5.0454D-01 9.5934D-01
 Trust test= 9.62D-01 RLast= 3.20D-01 DXMaxT set to 5.05D-01
 ITU=  1  0
 Use linear search instead of GDIIS.
     Eigenvalues ---    0.00594   0.01039   0.01118   0.01358   0.01586
     Eigenvalues ---    0.01622   0.01716   0.01824   0.01974   0.02108
     Eigenvalues ---    0.02204   0.02440   0.02609   0.04760   0.04825
     Eigenvalues ---    0.05825   0.06354   0.08884   0.15759   0.15996
     Eigenvalues ---    0.16000   0.16000   0.16000   0.16000   0.16000
     Eigenvalues ---    0.16399   0.18127   0.20849   0.22002   0.23593
     Eigenvalues ---    0.24017   0.24921   0.24984   0.26178   0.29442
     Eigenvalues ---    0.31096   0.34142   0.35181   0.35275   0.35396
     Eigenvalues ---    0.39482   0.43632   0.44092   0.44338   0.44485
     Eigenvalues ---    0.45560   0.45966   0.47264   0.48256   0.50381
     Eigenvalues ---    0.52421   0.52590   0.55543   0.91196
 RFO step:  Lambda=-2.25669361D-03 EMin= 5.94346946D-03
 Quartic linear search produced a step of  0.06763.
 Iteration  1 RMS(Cart)=  0.07139236 RMS(Int)=  0.00232840
 Iteration  2 RMS(Cart)=  0.00341140 RMS(Int)=  0.00017171
 Iteration  3 RMS(Cart)=  0.00000555 RMS(Int)=  0.00017168
 Iteration  4 RMS(Cart)=  0.00000000 RMS(Int)=  0.00017168
 Variable       Old X    -DE/DX   Delta X   Delta X   Delta X     New X
                                 (Linear)    (Quad)   (Total)
    R1        2.55641   0.00362   0.00201   0.00759   0.00958   2.56599
    R2        2.72114  -0.00456  -0.00264  -0.01435  -0.01695   2.70419
    R3        2.04808   0.00006  -0.00030   0.00001  -0.00029   2.04779
    R4        2.60846  -0.00181   0.00189  -0.00281  -0.00098   2.60749
    R5        2.04794  -0.00060  -0.00019  -0.00188  -0.00206   2.04587
    R6        2.60587   0.00252   0.00092   0.00568   0.00656   2.61242
    R7        1.91213   0.00066  -0.00005   0.00150   0.00145   1.91357
    R8        2.32938   0.00245   0.00041   0.00306   0.00347   2.33284
    R9        2.79414  -0.00256  -0.00541  -0.01151  -0.01689   2.77724
   R10        2.59715   0.00500   0.00267   0.01127   0.01399   2.61114
   R11        2.61466  -0.00334  -0.00075  -0.00783  -0.00858   2.60608
   R12        2.86601   0.00097   0.00053   0.00357   0.00410   2.87012
   R13        2.79091  -0.00342   0.00357  -0.00753  -0.00396   2.78696
   R14        2.68918  -0.00474   0.00204  -0.01016  -0.00812   2.68106
   R15        2.07658  -0.00017   0.00038  -0.00034   0.00004   2.07662
   R16        1.92758  -0.00013   0.00000  -0.00030  -0.00030   1.92728
   R17        1.93205  -0.00197   0.00043  -0.00443  -0.00400   1.92805
   R18        1.83978  -0.00023  -0.00014  -0.00054  -0.00067   1.83911
   R19        1.92154  -0.00120  -0.00056  -0.00315  -0.00371   1.91783
   R20        1.92856  -0.00147  -0.00046  -0.00379  -0.00425   1.92432
    A1        2.09626   0.00200  -0.00100   0.00896   0.00805   2.10431
    A2        2.10403  -0.00180   0.00059  -0.00956  -0.00903   2.09500
    A3        2.08269  -0.00020   0.00041   0.00076   0.00111   2.08380
    A4        2.08827  -0.00157  -0.00069  -0.00832  -0.00901   2.07925
    A5        2.16048   0.00208   0.00120   0.01301   0.01420   2.17468
    A6        2.03444  -0.00051  -0.00050  -0.00469  -0.00519   2.02925
    A7        2.18184   0.00047   0.00133   0.00250   0.00381   2.18565
    A8        2.10637  -0.00091   0.00008  -0.00532  -0.00524   2.10114
    A9        1.99496   0.00044  -0.00141   0.00281   0.00140   1.99637
   A10        2.14231  -0.00360   0.00091  -0.01451  -0.01373   2.12858
   A11        2.00468   0.00013  -0.00215  -0.00026  -0.00244   2.00224
   A12        2.13589   0.00348   0.00124   0.01537   0.01648   2.15237
   A13        2.10380   0.00007   0.00278   0.00199   0.00485   2.10865
   A14        1.97601   0.00157  -0.00367   0.00441   0.00060   1.97661
   A15        2.20286  -0.00165   0.00086  -0.00685  -0.00615   2.19671
   A16        2.08966  -0.00110  -0.00029  -0.00506  -0.00547   2.08419
   A17        2.04535   0.00286   0.00202   0.01238   0.01398   2.05932
   A18        2.14694  -0.00179  -0.00181  -0.00918  -0.01134   2.13561
   A19        1.94458   0.00126  -0.00410   0.00388  -0.00021   1.94437
   A20        1.95051   0.00213   0.00333   0.01186   0.01524   1.96575
   A21        1.89365  -0.00047  -0.00264   0.00480   0.00221   1.89586
   A22        1.90508  -0.00364   0.00303  -0.02262  -0.01956   1.88552
   A23        1.94793   0.00048   0.00449   0.00534   0.00973   1.95766
   A24        1.81868   0.00023  -0.00398  -0.00327  -0.00730   1.81138
   A25        1.86748   0.00082   0.00116   0.00746   0.00859   1.87607
   A26        1.93105  -0.00300   0.00340  -0.01653  -0.01316   1.91789
   A27        1.85942   0.00131   0.00118   0.01258   0.01370   1.87311
   A28        1.85383  -0.00032   0.00281  -0.00078   0.00204   1.85587
   A29        1.95177  -0.00082   0.00118   0.00452   0.00517   1.95693
   A30        1.96632   0.00087   0.00180   0.01577   0.01705   1.98337
   A31        2.00997   0.00190   0.00163   0.02773   0.02858   2.03855
    D1        0.00772  -0.00006   0.00016  -0.00036  -0.00025   0.00747
    D2       -3.13573  -0.00001  -0.00014   0.00011  -0.00004  -3.13577
    D3        3.12699   0.00012   0.00028   0.00836   0.00850   3.13549
    D4       -0.01647   0.00018  -0.00002   0.00884   0.00871  -0.00776
    D5        0.03637  -0.00001   0.00016   0.00103   0.00118   0.03755
    D6        3.12614  -0.00067  -0.00305  -0.03815  -0.04153   3.08461
    D7       -3.08317  -0.00017   0.00003  -0.00746  -0.00739  -3.09055
    D8        0.00660  -0.00084  -0.00317  -0.04663  -0.05010  -0.04350
    D9       -0.01906   0.00002  -0.00038   0.00180   0.00141  -0.01765
   D10        3.11711  -0.00002  -0.00070  -0.00098  -0.00173   3.11538
   D11        3.12427  -0.00003  -0.00010   0.00134   0.00119   3.12546
   D12       -0.02275  -0.00007  -0.00042  -0.00144  -0.00194  -0.02470
   D13        3.10366   0.00040   0.00026   0.02261   0.02260   3.12626
   D14       -0.01215  -0.00001   0.00017  -0.00378  -0.00354  -0.01569
   D15       -0.03281   0.00045   0.00056   0.02525   0.02559  -0.00722
   D16        3.13456   0.00004   0.00048  -0.00114  -0.00055   3.13401
   D17        0.05624  -0.00002   0.00028   0.00457   0.00477   0.06101
   D18       -3.05293   0.00027   0.00332   0.01902   0.02227  -3.03066
   D19       -3.05968  -0.00031   0.00020  -0.02121  -0.02127  -3.08095
   D20        0.11433  -0.00003   0.00324  -0.00677  -0.00377   0.11057
   D21       -0.06872   0.00003  -0.00053  -0.00331  -0.00381  -0.07253
   D22        3.12784   0.00059   0.00286   0.03757   0.04006  -3.11528
   D23        3.03593  -0.00023  -0.00396  -0.01952  -0.02348   3.01245
   D24       -0.05069   0.00033  -0.00057   0.02137   0.02039  -0.03030
   D25       -0.38199   0.00184   0.00218   0.05247   0.05500  -0.32699
   D26       -2.67839  -0.00088  -0.00255  -0.00510  -0.00783  -2.68621
   D27        2.79422   0.00210   0.00544   0.06768   0.07329   2.86751
   D28        0.49782  -0.00062   0.00070   0.01011   0.01047   0.50829
   D29        2.53359   0.00057  -0.00143  -0.07998  -0.08129   2.45230
   D30       -1.61313  -0.00169   0.00204  -0.09794  -0.09587  -1.70900
   D31        0.38240  -0.00053  -0.00242  -0.09256  -0.09497   0.28744
   D32       -0.66167  -0.00009  -0.00475  -0.12039  -0.12512  -0.78679
   D33        1.47480  -0.00235  -0.00127  -0.13835  -0.13970   1.33510
   D34       -2.81286  -0.00119  -0.00573  -0.13297  -0.13880  -2.95165
   D35        2.99426   0.00050   0.00146   0.04060   0.04207   3.03633
   D36       -1.27008   0.00096   0.00507   0.05116   0.05627  -1.21382
   D37        0.83185  -0.00050  -0.00223   0.03883   0.03661   0.86846
   D38        2.85069  -0.00004   0.00137   0.04939   0.05081   2.90150
   D39       -1.16902   0.00111  -0.00151   0.05326   0.05167  -1.11735
   D40        0.84982   0.00157   0.00209   0.06382   0.06587   0.91569
   D41       -1.05563   0.00100   0.00116   0.05921   0.06033  -0.99530
   D42        1.10327   0.00147   0.00021   0.05618   0.05640   1.15968
   D43       -3.09699   0.00039   0.00486   0.04965   0.05454  -3.04245
         Item               Value     Threshold  Converged?
 Maximum Force            0.005003     0.000450     NO 
 RMS     Force            0.001665     0.000300     NO 
 Maximum Displacement     0.287038     0.001800     NO 
 RMS     Displacement     0.071393     0.001200     NO 
 Predicted change in Energy=-1.297721D-03
 GradGradGradGradGradGradGradGradGradGradGradGradGradGradGradGradGradGrad

                          Input orientation:                          
 ---------------------------------------------------------------------
 Center     Atomic      Atomic             Coordinates (Angstroms)
 Number     Number       Type             X           Y           Z
 ---------------------------------------------------------------------
      1          6           0        0.018812   -1.419824    0.002828
      2          6           0       -1.155696   -0.741361   -0.060527
      3          7           0       -1.131902    0.631598   -0.195897
      4          6           0        0.010812    1.407324   -0.255727
      5          8           0       -0.038028    2.633099   -0.393756
      6          6           0        1.269488    0.657207   -0.141958
      7          6           0        1.266603   -0.722135   -0.060402
      8          6           0        2.543589   -1.530182    0.091664
      9          7           0        3.593972   -1.054941   -0.828040
     10          8           0        3.062918   -1.487184    1.411254
     11          7           0        2.381872    1.468738   -0.065323
     12          1           0        0.017208   -2.497663    0.114804
     13          1           0       -2.134647   -1.201309   -0.013758
     14          1           0       -1.996222    1.154257   -0.267828
     15          1           0        2.307259   -2.592276   -0.062235
     16          1           0        4.448678   -1.565744   -0.607370
     17          1           0        3.342792   -1.284276   -1.789956
     18          1           0        3.200272   -0.546779    1.620818
     19          1           0        2.193109    2.408489   -0.398791
     20          1           0        3.234821    1.025135   -0.400940
 ---------------------------------------------------------------------
                    Distance matrix (angstroms):
                    1          2          3          4          5
     1  C    0.000000
     2  C    1.357863   0.000000
     3  N    2.360501   1.379822   0.000000
     4  C    2.838958   2.452691   1.382435   0.000000
     5  O    4.072676   3.570323   2.289479   1.234488   0.000000
     6  C    2.428830   2.800740   2.402133   1.469654   2.382677
     7  C    1.430996   2.422375   2.757495   2.479871   3.615354
     8  C    2.528749   3.785513   4.273783   3.894173   4.922732
     9  N    3.688530   4.821489   5.057460   4.385125   5.194387
    10  O    3.354815   4.529801   4.966758   4.524639   5.463576
    11  N    3.732625   4.171205   3.614480   2.379486   2.705462
    12  H    1.083641   2.119208   3.348024   3.922532   5.156200
    13  H    2.164580   1.082628   2.097193   3.386223   4.386672
    14  H    3.280169   2.083945   1.012619   2.022962   2.457103
    15  H    2.572133   3.926569   4.715831   4.616049   5.737144
    16  H    4.474075   5.691015   6.011697   5.353264   6.148694
    17  H    3.779060   4.849957   5.121961   4.549798   5.359585
    18  H    3.674478   4.673247   4.843218   4.184805   4.965553
    19  H    4.420955   4.609823   3.775474   2.405248   2.242420
    20  H    4.059996   4.744790   4.389213   3.249829   3.646525
                    6          7          8          9         10
     6  C    0.000000
     7  C    1.381755   0.000000
     8  C    2.542162   1.518801   0.000000
     9  N    2.967387   2.473191   1.474794   0.000000
    10  O    3.198011   2.444958   1.418756   2.341643   0.000000
    11  N    1.379077   2.458409   3.007377   2.901702   3.373659
    12  H    3.404018   2.178115   2.705393   3.970345   3.460953
    13  H    3.880548   3.435154   4.690966   5.788053   5.396950
    14  H    3.305717   3.769603   5.286335   6.036942   5.949070
    15  H    3.412106   2.140186   1.098900   2.146040   1.990834
    16  H    3.907092   3.337132   2.029601   1.019872   2.449765
    17  H    3.283877   2.760058   2.059051   1.020278   3.219821
    18  H    2.878348   2.568332   1.933036   2.531824   0.973214
    19  H    1.996503   3.282336   3.984534   3.760587   4.382819
    20  H    2.016178   2.653828   2.692602   2.153629   3.102474
                   11         12         13         14         15
    11  N    0.000000
    12  H    4.621300   0.000000
    13  H    5.246976   2.515461   0.000000
    14  H    4.394044   4.187700   2.373268   0.000000
    15  H    4.061701   2.298832   4.654854   5.709530   0.000000
    16  H    3.711277   4.585622   6.620072   7.003602   2.436517
    17  H    3.387744   4.019941   5.758829   6.063695   2.401710
    18  H    2.752300   4.025658   5.617972   5.784813   2.795389
    19  H    1.014872   5.391535   5.648748   4.375014   5.013377
    20  H    1.018304   4.798868   5.825646   5.234330   3.749768
                   16         17         18         19         20
    16  H    0.000000
    17  H    1.643385   0.000000
    18  H    2.749842   3.492505   0.000000
    19  H    4.574453   4.110186   3.718441   0.000000
    20  H    2.868574   2.697110   2.561173   1.731715   0.000000
 Stoichiometry    C6H9N3O2
 Framework group  C1[X(C6H9N3O2)]
 Deg. of freedom    54
 Full point group                 C1      NOp   1
 Largest Abelian subgroup         C1      NOp   1
 Largest concise Abelian subgroup C1      NOp   1
                         Standard orientation:                         
 ---------------------------------------------------------------------
 Center     Atomic      Atomic             Coordinates (Angstroms)
 Number     Number       Type             X           Y           Z
 ---------------------------------------------------------------------
      1          6           0        0.207513    1.789693   -0.137600
      2          6           0        1.561893    1.868993   -0.081383
      3          7           0        2.300627    0.705609   -0.012708
      4          6           0        1.774328   -0.572177    0.024688
      5          8           0        2.493960   -1.574188    0.070131
      6          6           0        0.306041   -0.632861    0.006403
      7          6           0       -0.448517    0.518103   -0.116763
      8          6           0       -1.967167    0.499600   -0.106028
      9          7           0       -2.498368   -0.577580   -0.961904
     10          8           0       -2.501823    0.329203    1.197037
     11          7           0       -0.188407   -1.907870    0.184519
     12          1           0       -0.387215    2.694249   -0.186143
     13          1           0        2.124335    2.794036   -0.087615
     14          1           0        3.312407    0.741741    0.007090
     15          1           0       -2.332382    1.490012   -0.411451
     16          1           0       -3.509749   -0.601151   -0.832710
     17          1           0       -2.322453   -0.359936   -1.943053
     18          1           0       -2.125399   -0.499700    1.541087
     19          1           0        0.511067   -2.618785   -0.003364
     20          1           0       -1.109228   -2.049821   -0.226434
 ---------------------------------------------------------------------
 Rotational constants (GHZ):           1.8511482           0.8889285           0.6708927
 Standard basis: 6-31G(d) (6D, 7F)
 There are   183 symmetry adapted cartesian basis functions of A   symmetry.
 There are   183 symmetry adapted basis functions of A   symmetry.
   183 basis functions,   344 primitive gaussians,   183 cartesian basis functions
    41 alpha electrons       41 beta electrons
       nuclear repulsion energy       627.9760243009 Hartrees.
 NAtoms=   20 NActive=   20 NUniq=   20 SFac= 1.00D+00 NAtFMM=   60 NAOKFM=F Big=F
 Integral buffers will be    131072 words long.
 Raffenetti 2 integral format.
 Two-electron integral symmetry is turned on.
 Nuclear repulsion after empirical dispersion term =      627.9393749101 Hartrees.
 One-electron integrals computed using PRISM.
 NBasis=   183 RedAO= T EigKep=  5.52D-04  NBF=   183
 NBsUse=   183 1.00D-06 EigRej= -1.00D+00 NBFU=   183
 Initial guess from the checkpoint file:  "JID_1293.chk"
 B after Tr=     0.000000    0.000000   -0.000000
         Rot=    0.999772   -0.020886   -0.001890    0.004039 Ang=  -2.45 deg.
 ExpMin= 1.61D-01 ExpMax= 5.48D+03 ExpMxC= 8.25D+02 IAcc=2 IRadAn=         4 AccDes= 0.00D+00
 Harris functional with IExCor=  402 and IRadAn=       4 diagonalized for initial guess.
 HarFok:  IExCor=  402 AccDes= 0.00D+00 IRadAn=         4 IDoV= 1 UseB2=F ITyADJ=14
 ICtDFT=  3500011 ScaDFX=  1.000000  1.000000  1.000000  1.000000
 FoFCou: FMM=F IPFlag=           0 FMFlag=      100000 FMFlg1=           0
         NFxFlg=           0 DoJE=T BraDBF=F KetDBF=T FulRan=T
         wScrn=  0.000000 ICntrl=       500 IOpCl=  0 I1Cent=   200000004 NGrid=           0
         NMat0=    1 NMatS0=      1 NMatT0=    0 NMatD0=    1 NMtDS0=    0 NMtDT0=    0
 Petite list used in FoFCou.
 Keep R1 ints in memory in canonical form, NReq=145769765.
 Requested convergence on RMS density matrix=1.00D-08 within  32 cycles.
 Requested convergence on MAX density matrix=1.00D-06.
 Requested convergence on             energy=1.00D-06.
 No special actions if energy rises.
 Integral accuracy reduced to 1.0D-05 until final iterations.
 Initial convergence to 1.0D-05 achieved.  Increase integral accuracy.
 SCF Done:  E(RB3LYP) =  -548.791181091     A.U. after   13 cycles
            NFock= 13  Conv=0.40D-08     -V/T= 2.0092
 QCSCF skips out because SCF is already converged.
 Calling FoFJK, ICntrl=      2127 FMM=F ISym2X=0 I1Cent= 0 IOpClX= 0 NMat=1 NMatS=1 NMatT=0.
 ***** Axes restored to original set *****
 -------------------------------------------------------------------
 Center     Atomic                   Forces (Hartrees/Bohr)
 Number     Number              X              Y              Z
 -------------------------------------------------------------------
      1        6           0.000838970    0.001457625   -0.001102228
      2        6          -0.000464492    0.001588434   -0.000553707
      3        7          -0.000646255   -0.002559321   -0.000190565
      4        6          -0.000242251   -0.001367315    0.001121745
      5        8           0.000268757    0.000966819   -0.000362523
      6        6           0.000581363    0.002048484    0.001526713
      7        6          -0.001097661   -0.002217849    0.000337026
      8        6           0.002312205    0.000961345    0.000893750
      9        7          -0.001459795   -0.000172065    0.001672982
     10        8           0.000231859    0.001685113   -0.001505353
     11        7           0.002726150   -0.004232082   -0.002004126
     12        1          -0.000481654   -0.000461915   -0.000298202
     13        1           0.000118143   -0.000063546    0.000059839
     14        1           0.000035890    0.000074177    0.000024216
     15        1          -0.000192703   -0.000153108    0.000405963
     16        1          -0.000684906   -0.000256631   -0.000331009
     17        1          -0.000333343    0.001557967   -0.000035119
     18        1          -0.000873183    0.000206357    0.000518435
     19        1          -0.000046001    0.000303248    0.000878469
     20        1          -0.000591092    0.000634265   -0.001056305
 -------------------------------------------------------------------
 Cartesian Forces:  Max     0.004232082 RMS     0.001196156

 GradGradGradGradGradGradGradGradGradGradGradGradGradGradGradGradGradGrad
 Berny optimization.
 Using GEDIIS/GDIIS optimizer.
 FormGI is forming the generalized inverse of G from B-inverse, IUseBI=4.
 Internal  Forces:  Max     0.007406181 RMS     0.001477445
 Search for a local minimum.
 Step number   3 out of a maximum of  104
 All quantities printed in internal units (Hartrees-Bohrs-Radians)
 Mixed Optimization -- RFO/linear search
 Update second derivatives using D2CorX and points    1    2    3
 DE= -1.39D-03 DEPred=-1.30D-03 R= 1.07D+00
 TightC=F SS=  1.41D+00  RLast= 3.57D-01 DXNew= 8.4853D-01 1.0714D+00
 Trust test= 1.07D+00 RLast= 3.57D-01 DXMaxT set to 8.49D-01
 ITU=  1  1  0
 Use linear search instead of GDIIS.
     Eigenvalues ---    0.00518   0.00867   0.01131   0.01321   0.01475
     Eigenvalues ---    0.01633   0.01688   0.01812   0.02050   0.02113
     Eigenvalues ---    0.02275   0.02553   0.02617   0.04402   0.04786
     Eigenvalues ---    0.05798   0.06797   0.08921   0.14707   0.15999
     Eigenvalues ---    0.16000   0.16000   0.16000   0.16000   0.16043
     Eigenvalues ---    0.16334   0.17186   0.20846   0.21688   0.22978
     Eigenvalues ---    0.23744   0.24891   0.25947   0.27859   0.30468
     Eigenvalues ---    0.33152   0.34140   0.35255   0.35383   0.36495
     Eigenvalues ---    0.39858   0.43645   0.44152   0.44355   0.44505
     Eigenvalues ---    0.45548   0.45795   0.47294   0.48541   0.50489
     Eigenvalues ---    0.52442   0.55050   0.57796   0.91043
[...]
    76    C    4  py     Val( 2p)     0.39345       0.11170
    77    C    4  py     Ryd( 4p)     0.00603       1.57223
    78    C    4  py     Ryd( 3p)     0.00017       1.41193
    79    C    4  py     Ryd( 5p)     0.00007       2.00123
    80    C    4  pz     Val( 2p)     0.42499       0.01166
    81    C    4  pz     Ryd( 4p)     0.00080       0.84778
    82    C    4  pz     Ryd( 3p)     0.00070       0.42863
    83    C    4  pz     Ryd( 5p)     0.00006       2.33012
    84    C    4  dxy    Ryd( 3d)     0.00095       2.74360
    85    C    4  dxz    Ryd( 3d)     0.00073       1.72850
    86    C    4  dyz    Ryd( 3d)     0.00195       1.74543
    87    C    4  dx2y2  Ryd( 3d)     0.00177       2.78414
    88    C    4  dz2    Ryd( 3d)     0.00028       2.18761
 
    89    O    5  S      Cor( 1S)     0.99988     -18.70336
    90    O    5  S      Val( 2S)     0.85073      -0.74300
    91    O    5  S      Ryd( 4S)     0.00033       2.29119
    92    O    5  S      Ryd( 3S)     0.00001       1.17449
    93    O    5  S      Ryd( 5S)     0.00000      49.80341
    94    O    5  px     Val( 2p)     0.88875      -0.13502
    95    O    5  px     Ryd( 3p)     0.00102       0.99093
    96    O    5  px     Ryd( 4p)     0.00004       1.42228
    97    O    5  px     Ryd( 5p)     0.00002       5.04954
    98    O    5  py     Val( 2p)     0.81953      -0.14633
    99    O    5  py     Ryd( 3p)     0.00075       0.99567
   100    O    5  py     Ryd( 4p)     0.00002       1.22729
   101    O    5  py     Ryd( 5p)     0.00002       5.21078
   102    O    5  pz     Val( 2p)     0.78765      -0.11544
   103    O    5  pz     Ryd( 3p)     0.00134       0.79575
   104    O    5  pz     Ryd( 4p)     0.00006       1.18000
   105    O    5  pz     Ryd( 5p)     0.00001       4.91612
   106    O    5  dxy    Ryd( 3d)     0.00068       3.68273
   107    O    5  dxz    Ryd( 3d)     0.00023       3.06473
   108    O    5  dyz    Ryd( 3d)     0.00051       3.16890
   109    O    5  dx2y2  Ryd( 3d)     0.00066       3.45218
   110    O    5  dz2    Ryd( 3d)     0.00021       3.24327
 
   111    C    6  S      Cor( 1S)     0.99943      -9.94141
   112    C    6  S      Val( 2S)     0.42224      -0.00421
   113    C    6  S      Ryd( 3S)     0.00123       3.11187
   114    C    6  S      Ryd( 4S)     0.00070       4.65123
   115    C    6  S      Ryd( 5S)     0.00004      13.97394
   116    C    6  px     Val( 2p)     0.52162       0.06343
   117    C    6  px     Ryd( 3p)     0.00238       1.81406
   118    C    6  px     Ryd( 5p)     0.00044       4.77576
   119    C    6  px     Ryd( 4p)     0.00004       3.40873
   120    C    6  py     Val( 2p)     0.48226       0.07798
   121    C    6  py     Ryd( 3p)     0.00317       1.58549
   122    C    6  py     Ryd( 5p)     0.00043       3.53477
   123    C    6  py     Ryd( 4p)     0.00005       3.33503
   124    C    6  pz     Val( 2p)     0.49507       0.01713
   125    C    6  pz     Ryd( 3p)     0.00089       0.72296
   126    C    6  pz     Ryd( 4p)     0.00022       0.97164
   127    C    6  pz     Ryd( 5p)     0.00003       2.78262
   128    C    6  dxy    Ryd( 3d)     0.00050       2.88678
   129    C    6  dxz    Ryd( 3d)     0.00025       1.76464
   130    C    6  dyz    Ryd( 3d)     0.00095       1.82455
   131    C    6  dx2y2  Ryd( 3d)     0.00062       2.97075
   132    C    6  dz2    Ryd( 3d)     0.00028       2.26468
 
   133    C    7  S      Cor( 1S)     0.99945      -9.90943
   134    C    7  S      Val( 2S)     0.43883      -0.01854
   135    C    7  S      Ryd( 4S)     0.00166       8.21935
   136    C    7  S      Ryd( 3S)     0.00059       1.19117
   137    C    7  S      Ryd( 5S)     0.00008       8.59904
   138    C    7  px     Val( 2p)     0.52758       0.06319
   139    C    7  px     Ryd( 3p)     0.00263       1.67045
   140    C    7  px     Ryd( 5p)     0.00033       3.18713
   141    C    7  px     Ryd( 4p)     0.00012       1.84075
   142    C    7  py     Val( 2p)     0.54069       0.06915
   143    C    7  py     Ryd( 3p)     0.00210       1.59002
   144    C    7  py     Ryd( 5p)     0.00039       4.19155
   145    C    7  py     Ryd( 4p)     0.00007       2.31824
   146    C    7  pz     Val( 2p)     0.51428       0.02166
   147    C    7  pz     Ryd( 4p)     0.00201       0.74757
   148    C    7  pz     Ryd( 3p)     0.00044       0.64907
   149    C    7  pz     Ryd( 5p)     0.00005       2.45754
   150    C    7  dxy    Ryd( 3d)     0.00035       3.09371
   151    C    7  dxz    Ryd( 3d)     0.00026       1.83635
   152    C    7  dyz    Ryd( 3d)     0.00034       1.83797
   153    C    7  dx2y2  Ryd( 3d)     0.00034       2.83174
   154    C    7  dz2    Ryd( 3d)     0.00024       2.30267
 
   155    C    8  S      Cor( 1S)     0.99958     -10.01655
   156    C    8  S      Val( 2S)     0.45377      -0.09408
   157    C    8  S      Ryd( 3S)     0.00210       1.86665
   158    C    8  S      Ryd( 4S)     0.00081       2.27091
   159    C    8  S      Ryd( 5S)     0.00015      17.18763
   160    C    8  px     Val( 2p)     0.50120       0.03254
   161    C    8  px     Ryd( 3p)     0.00191       1.48918
   162    C    8  px     Ryd( 4p)     0.00076       1.56772
   163    C    8  px     Ryd( 5p)     0.00008       2.64914
   164    C    8  py     Val( 2p)     0.51237       0.02030
   165    C    8  py     Ryd( 4p)     0.00340       1.45519
   166    C    8  py     Ryd( 3p)     0.00053       0.69587
   167    C    8  py     Ryd( 5p)     0.00020       1.85336
   168    C    8  pz     Val( 2p)     0.36925       0.04674
   169    C    8  pz     Ryd( 4p)     0.00278       1.14782
   170    C    8  pz     Ryd( 3p)     0.00064       0.84472
   171    C    8  pz     Ryd( 5p)     0.00007       2.46689
   172    C    8  dxy    Ryd( 3d)     0.00056       2.16062
   173    C    8  dxz    Ryd( 3d)     0.00105       2.03337
   174    C    8  dyz    Ryd( 3d)     0.00123       2.17241
   175    C    8  dx2y2  Ryd( 3d)     0.00081       2.53582
   176    C    8  dz2    Ryd( 3d)     0.00121       2.32025
 
   177    N    9  S      Cor( 1S)     0.99976     -14.01856
   178    N    9  S      Val( 2S)     0.71948      -0.48238
   179    N    9  S      Ryd( 3S)     0.00075       0.96166
   180    N    9  S      Ryd( 4S)     0.00029       1.63265
   181    N    9  S      Ryd( 5S)     0.00000      35.03520
   182    N    9  px     Val( 2p)     0.69944      -0.08199
   183    N    9  px     Ryd( 3p)     0.00162       0.62790
   184    N    9  px     Ryd( 4p)     0.00046       0.91367
   185    N    9  px     Ryd( 5p)     0.00001       4.32958
   186    N    9  py     Val( 2p)     0.86422      -0.11873
   187    N    9  py     Ryd( 3p)     0.00330       0.53418
   188    N    9  py     Ryd( 4p)     0.00049       0.94659
   189    N    9  py     Ryd( 5p)     0.00002       4.09927
   190    N    9  pz     Val( 2p)     0.64560      -0.08023
   191    N    9  pz     Ryd( 3p)     0.00223       0.58006
   192    N    9  pz     Ryd( 4p)     0.00026       0.96656
   193    N    9  pz     Ryd( 5p)     0.00001       4.36588
   194    N    9  dxy    Ryd( 3d)     0.00030       2.49406
   195    N    9  dxz    Ryd( 3d)     0.00007       2.62480
   196    N    9  dyz    Ryd( 3d)     0.00066       2.84531
   197    N    9  dx2y2  Ryd( 3d)     0.00063       2.77685
   198    N    9  dz2    Ryd( 3d)     0.00029       2.80441
 
   199    O   10  S      Cor( 1S)     0.99990     -18.79906
   200    O   10  S      Val( 2S)     0.83949      -0.78846
   201    O   10  S      Ryd( 4S)     0.00066       1.73996
   202    O   10  S      Ryd( 3S)     0.00003       1.55070
   203    O   10  S      Ryd( 5S)     0.00000      49.88225
   204    O   10  px     Val( 2p)     0.91418      -0.18875
   205    O   10  px     Ryd( 3p)     0.00100       0.93179
   206    O   10  px     Ryd( 4p)     0.00008       1.04741
   207    O   10  px     Ryd( 5p)     0.00001       5.23335
   208    O   10  py     Val( 2p)     0.78717      -0.16981
   209    O   10  py     Ryd( 4p)     0.00091       0.96106
   210    O   10  py     Ryd( 3p)     0.00004       0.94364
   211    O   10  py     Ryd( 5p)     0.00001       5.38802
   212    O   10  pz     Val( 2p)     0.82535      -0.18696
   213    O   10  pz     Ryd( 4p)     0.00087       0.93673
   214    O   10  pz     Ryd( 3p)     0.00009       0.84208
   215    O   10  pz     Ryd( 5p)     0.00002       5.25532
   216    O   10  dxy    Ryd( 3d)     0.00047       3.44579
   217    O   10  dxz    Ryd( 3d)     0.00043       3.29016
   218    O   10  dyz    Ryd( 3d)     0.00026       3.35538
   219    O   10  dx2y2  Ryd( 3d)     0.00031       3.24565
   220    O   10  dz2    Ryd( 3d)     0.00049       3.39945
 
   221    N   11  S      Cor( 1S)     0.99971     -14.01771
   222    N   11  S      Val( 2S)     0.67815      -0.44240
   223    N   11  S      Ryd( 4S)     0.00010       1.74929
   224    N   11  S      Ryd( 3S)     0.00008       1.73716
   225    N   11  S      Ryd( 5S)     0.00000      35.43641
   226    N   11  px     Val( 2p)     0.71641      -0.09476
   227    N   11  px     Ryd( 3p)     0.00201       0.87795
   228    N   11  px     Ryd( 4p)     0.00013       1.08815
   229    N   11  px     Ryd( 5p)     0.00001       4.33217
   230    N   11  py     Val( 2p)     0.65863      -0.09088
   231    N   11  py     Ryd( 3p)     0.00118       0.80019
   232    N   11  py     Ryd( 4p)     0.00032       1.00490
   233    N   11  py     Ryd( 5p)     0.00001       4.25496
   234    N   11  pz     Val( 2p)     0.86044      -0.11961
   235    N   11  pz     Ryd( 3p)     0.00497       0.49469
   236    N   11  pz     Ryd( 4p)     0.00008       0.85439
   237    N   11  pz     Ryd( 5p)     0.00001       4.01669
   238    N   11  dxy    Ryd( 3d)     0.00043       3.05478
   239    N   11  dxz    Ryd( 3d)     0.00053       2.77834
   240    N   11  dyz    Ryd( 3d)     0.00030       2.42718
   241    N   11  dx2y2  Ryd( 3d)     0.00018       2.82275
   242    N   11  dz2    Ryd( 3d)     0.00036       2.68173
 
   243    H   12  S      Val( 1S)     0.39306       0.15940
   244    H   12  S      Ryd( 2S)     0.00067       0.46079
   245    H   12  S      Ryd( 4S)     0.00030       1.71471
   246    H   12  S      Ryd( 3S)     0.00003       0.90551
   247    H   12  px     Ryd( 2p)     0.00009       2.33622
   248    H   12  py     Ryd( 2p)     0.00018       2.69684
   249    H   12  pz     Ryd( 2p)     0.00013       1.73391
 
   250    H   13  S      Val( 1S)     0.39789       0.13231
   251    H   13  S      Ryd( 2S)     0.00281       0.31939
   252    H   13  S      Ryd( 4S)     0.00025       1.50307
   253    H   13  S      Ryd( 3S)     0.00001       1.10677
   254    H   13  px     Ryd( 2p)     0.00010       2.33488
   255    H   13  py     Ryd( 2p)     0.00018       2.62712
   256    H   13  pz     Ryd( 2p)     0.00013       1.71173
 
   257    H   14  S      Val( 1S)     0.29950       0.17476
   258    H   14  S      Ryd( 2S)     0.00161       0.28444
   259    H   14  S      Ryd( 3S)     0.00056       0.92650
   260    H   14  S      Ryd( 4S)     0.00026       2.59002
   261    H   14  px     Ryd( 2p)     0.00025       2.83526
   262    H   14  py     Ryd( 2p)     0.00006       2.17083
   263    H   14  pz     Ryd( 2p)     0.00022       1.68812
 
   264    H   15  S      Val( 1S)     0.42144       0.13008
   265    H   15  S      Ryd( 2S)     0.00055       0.44568
   266    H   15  S      Ryd( 3S)     0.00138       1.35840
   267    H   15  S      Ryd( 4S)     0.00013       2.72416
   268    H   15  px     Ryd( 2p)     0.00011       2.08695
   269    H   15  py     Ryd( 2p)     0.00023       2.79005
   270    H   15  pz     Ryd( 2p)     0.00005       1.91545
 
   271    H   16  S      Val( 1S)     0.31664       0.18799
   272    H   16  S      Ryd( 2S)     0.00181       0.31676
   273    H   16  S      Ryd( 4S)     0.00026       1.95059
   274    H   16  S      Ryd( 3S)     0.00003       1.14846
   275    H   16  px     Ryd( 2p)     0.00027       2.77201
   276    H   16  py     Ryd( 2p)     0.00034       1.84843
   277    H   16  pz     Ryd( 2p)     0.00016       1.88939
 
   278    H   17  S      Val( 1S)     0.31391       0.18858
   279    H   17  S      Ryd( 2S)     0.00177       0.29208
   280    H   17  S      Ryd( 4S)     0.00020       1.82443
   281    H   17  S      Ryd( 3S)     0.00003       1.18404
   282    H   17  px     Ryd( 2p)     0.00016       1.95090
   283    H   17  py     Ryd( 2p)     0.00037       1.96827
   284    H   17  pz     Ryd( 2p)     0.00022       2.57432
 
   285    H   18  S      Val( 1S)     0.26033       0.23128
   286    H   18  S      Ryd( 3S)     0.00073       0.78943
   287    H   18  S      Ryd( 4S)     0.00061       2.04167
   288    H   18  S      Ryd( 2S)     0.00003       0.78212
   289    H   18  px     Ryd( 2p)     0.00063       1.96793
   290    H   18  py     Ryd( 2p)     0.00054       2.52417
   291    H   18  pz     Ryd( 2p)     0.00052       1.97127
 
   292    H   19  S      Val( 1S)     0.30277       0.21973
   293    H   19  S      Ryd( 4S)     0.00062       1.89700
   294    H   19  S      Ryd( 2S)     0.00023       0.51315
   295    H   19  S      Ryd( 3S)     0.00004       1.17926
   296    H   19  px     Ryd( 2p)     0.00028       2.31187
   297    H   19  py     Ryd( 2p)     0.00019       2.44698
   298    H   19  pz     Ryd( 2p)     0.00030       1.83223
 
   299    H   20  S      Val( 1S)     0.29646       0.21967
   300    H   20  S      Ryd( 2S)     0.00060       0.87865
   301    H   20  S      Ryd( 4S)     0.00057       1.57859
   302    H   20  S      Ryd( 3S)     0.00004       0.92836
   303    H   20  px     Ryd( 2p)     0.00024       2.50335
   304    H   20  py     Ryd( 2p)     0.00014       1.99011
   305    H   20  pz     Ryd( 2p)     0.00039       2.16740

 WARNING:  Population inversion found on atom  C    1
           Population inversion found on atom  C    2
           Population inversion found on atom  N    3
           Population inversion found on atom  C    4
           Population inversion found on atom  O    5
           Population inversion found on atom  C    6
           Population inversion found on atom  C    7
           Population inversion found on atom  C    8
           Population inversion found on atom  O   10
           Population inversion found on atom  N   11
           Population inversion found on atom  H   12
           Population inversion found on atom  H   13
           Population inversion found on atom  H   15
           Population inversion found on atom  H   16
           Population inversion found on atom  H   17
           Population inversion found on atom  H   18
           Population inversion found on atom  H   19
           Population inversion found on atom  H   20


 Summary of Natural Population Analysis:                  
                                                          
                                       Natural Population 
                Natural  -----------------------------------------------
    Atom  No    Charge         Core      Valence    Rydberg      Total
 -----------------------------------------------------------------------
      C    1   -0.14230      0.99953     2.13233    0.01045     3.14230
      C    2    0.03554      0.99956     1.95205    0.01285     2.96446
      N    3   -0.26387      0.99967     2.75436    0.00983     3.76387
      C    4    0.30358      0.99959     1.67437    0.02246     2.69642
      O    5   -0.35246      0.99988     3.34667    0.00591     4.35246
      C    6    0.06717      0.99943     1.92119    0.01222     2.93283
      C    7   -0.03287      0.99945     2.02139    0.01203     3.03287
      C    8    0.14553      0.99958     1.83660    0.01829     2.85447
      N    9   -0.43990      0.99976     2.92874    0.01140     3.93990
      O   10   -0.37179      0.99990     3.36619    0.00570     4.37179
      N   11   -0.42403      0.99971     2.91363    0.01069     3.92403
      H   12    0.10555      0.00000     0.39306    0.00139     0.39445
      H   13    0.09864      0.00000     0.39789    0.00347     0.40136
      H   14    0.19754      0.00000     0.29950    0.00296     0.30246
      H   15    0.07611      0.00000     0.42144    0.00246     0.42389
      H   16    0.18049      0.00000     0.31664    0.00287     0.31951
      H   17    0.18334      0.00000     0.31391    0.00275     0.31666
      H   18    0.23661      0.00000     0.26033    0.00306     0.26339
      H   19    0.19557      0.00000     0.30277    0.00166     0.30443
      H   20    0.20156      0.00000     0.29646    0.00198     0.29844
 =======================================================================
   * Total *    0.00000     10.99607    29.84951    0.15442    41.00000

                                 Natural Population      
 --------------------------------------------------------
   Core                      10.99607 ( 99.9642% of  11)
   Valence                   29.84951 ( 99.4984% of  30)
   Natural Minimal Basis     40.84558 ( 99.6234% of  41)
   Natural Rydberg Basis      0.15442 (  0.3766% of  41)
 --------------------------------------------------------

    Atom  No          Natural Electron Configuration
 ----------------------------------------------------------------------------
      C    1      [core]2S( 0.47)2p( 1.66)
      C    2      [core]2S( 0.45)2p( 1.50)
      N    3      [core]2S( 0.63)2p( 2.13)
      C    4      [core]2S( 0.38)2p( 1.29)3d( 0.01)4p( 0.01)
      O    5      [core]2S( 0.85)2p( 2.50)
      C    6      [core]2S( 0.42)2p( 1.50)3p( 0.01)
      C    7      [core]2S( 0.44)2p( 1.58)3p( 0.01)
      C    8      [core]2S( 0.45)2p( 1.38)4p( 0.01)
      N    9      [core]2S( 0.72)2p( 2.21)3p( 0.01)
      O   10      [core]2S( 0.84)2p( 2.53)
      N   11      [core]2S( 0.68)2p( 2.24)3p( 0.01)
      H   12            1S( 0.39)
      H   13            1S( 0.40)
      H   14            1S( 0.30)
      H   15            1S( 0.42)
      H   16            1S( 0.32)
      H   17            1S( 0.31)
      H   18            1S( 0.26)
      H   19            1S( 0.30)
      H   20            1S( 0.30)


 NBO analysis skipped by request.
 1\1\GINC-NODE120\SP\UB3LYP\6-311++G(d,p)\C6H9N3O2(1-,2)\VSC10255\08-De
 c-2020\0\\# B3LYP/6-311++G(d,p) empiricaldispersion=gd3bj scf=xqc pop=
 npa geom=check\\CID_147252934_JID_1293_Energie_anion\\-1,2\C,0,0.02021
 34255,-1.4531124879,-0.0825062628\C,0,-1.1459373502,-0.7593633157,-0.1
 842334117\N,0,-1.1124310717,0.6144261281,-0.2192813482\C,0,0.036754321
 1,1.392640553,-0.166357667\O,0,-0.0072918381,2.625918019,-0.2120024785
 \C,0,1.2755780524,0.6249040715,-0.0634542722\C,0,1.259994983,-0.752555
 0329,-0.0156191207\C,0,2.5709341214,-1.4928794937,0.1857648627\N,0,3.4
 914135421,-1.1552931688,-0.9126426364\O,0,3.189551908,-1.1568237589,1.
 4088750894\N,0,2.4370982676,1.3817783948,0.0430454183\H,0,0.0045851486
 ,-2.5364071131,-0.0402421172\H,0,-2.1257415301,-1.2171938836,-0.237295
 3842\H,0,-1.9709761982,1.1457343982,-0.2998842332\H,0,2.3735574045,-2.
 5718005836,0.2640718257\H,0,4.361386912,-1.6680123419,-0.7746029438\H,
 0,3.0964726247,-1.446585547,-1.8064253491\H,0,3.2199902209,-0.18135526
 18,1.4419292167\H,0,2.2496612394,2.363394685,-0.1421412689\H,0,3.21089
 58172,0.9847557392,-0.4881379188\\Version=ES64L-G16RevA.03\State=2-A\H
 F=-548.9713794\S2=0.751245\S2-1=0.\S2A=0.750001\RMSD=2.110e-11\Dipole=
 0.8756841,0.7140504,0.237808\Quadrupole=-8.0680772,-2.5948039,10.66288
 11,5.0824434,0.9372321,-0.570159\PG=C01 [X(C6H9N3O2)]\\@


 THE BEST WAY TO CONVINCE A FOOL THAT HE IS WRONG 
 IS TO LET HIM HAVE HIS OWN WAY.

                                         JOSH BILLINGS
 Job cpu time:       0 days  0 hours 20 minutes 17.5 seconds.
 Elapsed time:       0 days  0 hours  5 minutes 49.3 seconds.
 File lengths (MBytes):  RWF=    144 Int=      0 D2E=      0 Chk=     16 Scr=      8
 Normal termination of Gaussian 16 at Tue Dec  8 19:52:57 2020.
