 Entering Gaussian System, Link 0=g16
 Initial command:
 /apps/brussel/CO7/skylake/software/Gaussian/G16.A.03-intel-2017b/g16/l1.exe "/scratch/brussel/102/vsc10255/Gau-109554.inp" -scrdir="/scratch/brussel/102/vsc10255/"
 Entering Link 1 = /apps/brussel/CO7/skylake/software/Gaussian/G16.A.03-intel-2017b/g16/l1.exe.bin PID=    110201.
  
 Copyright (c) 1988,1990,1992,1993,1995,1998,2003,2009,2016,
            Gaussian, Inc.  All Rights Reserved.
  
 This is part of the Gaussian(R) 16 program.  It is based on
 the Gaussian(R) 09 system (copyright 2009, Gaussian, Inc.),
 the Gaussian(R) 03 system (copyright 2003, Gaussian, Inc.),
 the Gaussian(R) 98 system (copyright 1998, Gaussian, Inc.),
 the Gaussian(R) 94 system (copyright 1995, Gaussian, Inc.),
 the Gaussian 92(TM) system (copyright 1992, Gaussian, Inc.),
 the Gaussian 90(TM) system (copyright 1990, Gaussian, Inc.),
 the Gaussian 88(TM) system (copyright 1988, Gaussian, Inc.),
 the Gaussian 86(TM) system (copyright 1986, Carnegie Mellon
 University), and the Gaussian 82(TM) system (copyright 1983,
 Carnegie Mellon University). Gaussian is a federally registered
 trademark of Gaussian, Inc.
  
 This software contains proprietary and confidential information,
 including trade secrets, belonging to Gaussian, Inc.
  
 This software is provided under written license and may be
 used, copied, transmitted, or stored only in accord with that
 written license.
  
 The following legend is applicable only to US Government
 contracts under FAR:
  
                    RESTRICTED RIGHTS LEGEND
  
 Use, reproduction and disclosure by the US Government is
 subject to restrictions as set forth in subparagraphs (a)
 and (c) of the Commercial Computer Software - Restricted
 Rights clause in FAR 52.227-19.
  
 Gaussian, Inc.
 340 Quinnipiac St., Bldg. 40, Wallingford CT 06492
  
  
 ---------------------------------------------------------------
 Warning -- This program may not be used in any manner that
 competes with the business of Gaussian, Inc. or will provide
 assistance to any competitor of Gaussian, Inc.  The licensee
 of this program is prohibited from giving any competitor of
 Gaussian, Inc. access to this program.  By using this program,
 the user acknowledges that Gaussian, Inc. is engaged in the
 business of creating and licensing software in the field of
 computational chemistry and represents and warrants to the
 licensee that it is not a competitor of Gaussian, Inc. and that
 it will not use this program in any manner prohibited above.
 ---------------------------------------------------------------
  

 Cite this work as:
 Gaussian 16, Revision A.03,
 M. J. Frisch, G. W. Trucks, H. B. Schlegel, G. E. Scuseria, 
 M. A. Robb, J. R. Cheeseman, G. Scalmani, V. Barone, 
 G. A. Petersson, H. Nakatsuji, X. Li, M. Caricato, A. V. Marenich, 
 J. Bloino, B. G. Janesko, R. Gomperts, B. Mennucci, H. P. Hratchian, 
 J. V. Ortiz, A. F. Izmaylov, J. L. Sonnenberg, D. Williams-Young, 
 F. Ding, F. Lipparini, F. Egidi, J. Goings, B. Peng, A. Petrone, 
 T. Henderson, D. Ranasinghe, V. G. Zakrzewski, J. Gao, N. Rega, 
 G. Zheng, W. Liang, M. Hada, M. Ehara, K. Toyota, R. Fukuda, 
 J. Hasegawa, M. Ishida, T. Nakajima, Y. Honda, O. Kitao, H. Nakai, 
 T. Vreven, K. Throssell, J. A. Montgomery, Jr., J. E. Peralta, 
 F. Ogliaro, M. J. Bearpark, J. J. Heyd, E. N. Brothers, K. N. Kudin, 
 V. N. Staroverov, T. A. Keith, R. Kobayashi, J. Normand, 
 K. Raghavachari, A. P. Rendell, J. C. Burant, S. S. Iyengar, 
 J. Tomasi, M. Cossi, J. M. Millam, M. Klene, C. Adamo, R. Cammi, 
 J. W. Ochterski, R. L. Martin, K. Morokuma, O. Farkas, 
 J. B. Foresman, and D. J. Fox, Gaussian, Inc., Wallingford CT, 2016.
 
 ******************************************
 Gaussian 16:  ES64L-G16RevA.03 25-Dec-2016
                 8-Dec-2020 
 ******************************************
 %chk=JID_623.chk
 %mem=8GB
 %nprocshared=4
 Will use up to    4 processors via shared memory.
 -----------------------------------------------------------
 # opt freq B3LYP/6-31G(d) empiricaldispersion=gd3bj scf=xqc
 -----------------------------------------------------------
 1/18=20,19=15,26=3,38=1/1,3;
 2/9=110,12=2,17=6,18=5,40=1/2;
 3/5=1,6=6,7=1,11=2,25=1,30=1,71=1,74=-5,124=41/1,2,3;
 4//1;
 5/5=2,8=3,13=1,38=5/2,8;
 6/7=2,8=2,9=2,10=2,28=1/1;
 7//1,2,3,16;
 1/18=20,19=15,26=3/3(2);
 2/9=110/2;
 99//99;
 2/9=110/2;
 3/5=1,6=6,7=1,11=2,25=1,30=1,71=1,74=-5,124=41/1,2,3;
 4/5=5,16=3,69=1/1;
 5/5=2,8=3,13=1,38=5/2,8;
 7//1,2,3,16;
 1/18=20,19=15,26=3/3(-5);
 2/9=110/2;
 6/7=2,8=2,9=2,10=2,19=2,28=1/1;
 99/9=1/99;
 -----------------------------
 CID_57000060_JID_623_neutraal
 -----------------------------
 Symbolic Z-matrix:
 Charge =  0 Multiplicity = 1
 C                     1.04697  -0.04283   0.0772 
 N                     0.15841   0.05335   1.01945 
 N                     0.52373   0.68851   2.15134 
 N                     0.63927  -0.60739  -1.09593 
 N                     2.35022   0.34536  -0.03092 
 N                     3.04249   0.34872   1.13181 
 N                     3.50814   1.50321   1.65498 
 N                     4.44615   1.10375   2.50341 
 N                     4.60064  -0.25669   2.40623 
 N                     3.76216  -0.7325    1.49519 
 H                    -0.22652   0.61153   2.84333 
 H                     0.63257   1.69462   1.9894 
 H                     0.82484  -0.02299  -1.90356 
 H                    -0.35888  -0.80185  -1.04319 
 H                     2.85345  -0.25599  -0.66557 
 

 GradGradGradGradGradGradGradGradGradGradGradGradGradGradGradGradGradGrad
 Berny optimization.
 Initialization pass.
                           ----------------------------
                           !    Initial Parameters    !
                           ! (Angstroms and Degrees)  !
 --------------------------                            --------------------------
 ! Name  Definition              Value          Derivative Info.                !
 --------------------------------------------------------------------------------
 ! R1    R(1,2)                  1.2987         estimate D2E/DX2                !
 ! R2    R(1,4)                  1.3643         estimate D2E/DX2                !
 ! R3    R(1,5)                  1.3641         estimate D2E/DX2                !
 ! R4    R(2,3)                  1.3484         estimate D2E/DX2                !
 ! R5    R(3,11)                 1.0235         estimate D2E/DX2                !
 ! R6    R(3,12)                 1.0249         estimate D2E/DX2                !
 ! R7    R(4,13)                 1.014          estimate D2E/DX2                !
 ! R8    R(4,14)                 1.0183         estimate D2E/DX2                !
 ! R9    R(5,6)                  1.3532         estimate D2E/DX2                !
 ! R10   R(5,15)                 1.0088         estimate D2E/DX2                !
 ! R11   R(6,7)                  1.3503         estimate D2E/DX2                !
 ! R12   R(6,10)                 1.3487         estimate D2E/DX2                !
 ! R13   R(7,8)                  1.3264         estimate D2E/DX2                !
 ! R14   R(8,9)                  1.3726         estimate D2E/DX2                !
 ! R15   R(9,10)                 1.3264         estimate D2E/DX2                !
 ! A1    A(2,1,4)              116.7482         estimate D2E/DX2                !
 ! A2    A(2,1,5)              133.6371         estimate D2E/DX2                !
 ! A3    A(4,1,5)              109.5795         estimate D2E/DX2                !
 ! A4    A(1,2,3)              117.2948         estimate D2E/DX2                !
 ! A5    A(2,3,11)             109.482          estimate D2E/DX2                !
 ! A6    A(2,3,12)             111.0127         estimate D2E/DX2                !
 ! A7    A(11,3,12)            104.9813         estimate D2E/DX2                !
 ! A8    A(1,4,13)             113.0605         estimate D2E/DX2                !
 ! A9    A(1,4,14)             109.1127         estimate D2E/DX2                !
 ! A10   A(13,4,14)            109.3112         estimate D2E/DX2                !
 ! A11   A(1,5,6)              114.9197         estimate D2E/DX2                !
 ! A12   A(1,5,15)             110.9047         estimate D2E/DX2                !
 ! A13   A(6,5,15)             106.6693         estimate D2E/DX2                !
 ! A14   A(5,6,7)              120.7596         estimate D2E/DX2                !
 ! A15   A(5,6,10)             120.1648         estimate D2E/DX2                !
 ! A16   A(7,6,10)             113.3914         estimate D2E/DX2                !
 ! A17   A(6,7,8)              103.5453         estimate D2E/DX2                !
 ! A18   A(7,8,9)              109.4389         estimate D2E/DX2                !
 ! A19   A(8,9,10)             109.4514         estimate D2E/DX2                !
 ! A20   A(6,10,9)             103.579          estimate D2E/DX2                !
 ! D1    D(4,1,2,3)           -175.7413         estimate D2E/DX2                !
 ! D2    D(5,1,2,3)              1.8361         estimate D2E/DX2                !
 ! D3    D(2,1,4,13)           126.0995         estimate D2E/DX2                !
 ! D4    D(2,1,4,14)             4.235          estimate D2E/DX2                !
 ! D5    D(5,1,4,13)           -52.0398         estimate D2E/DX2                !
 ! D6    D(5,1,4,14)          -173.9043         estimate D2E/DX2                !
 ! D7    D(2,1,5,6)             30.7034         estimate D2E/DX2                !
 ! D8    D(2,1,5,15)           151.7705         estimate D2E/DX2                !
 ! D9    D(4,1,5,6)           -151.5927         estimate D2E/DX2                !
 ! D10   D(4,1,5,15)           -30.5256         estimate D2E/DX2                !
 ! D11   D(1,2,3,11)          -174.2115         estimate D2E/DX2                !
 ! D12   D(1,2,3,12)            70.3447         estimate D2E/DX2                !
 ! D13   D(2,3,11,12)         -119.2356         estimate D2E/DX2                !
 ! D14   D(1,5,6,7)           -114.7728         estimate D2E/DX2                !
 ! D15   D(1,5,6,10)            93.552          estimate D2E/DX2                !
 ! D16   D(15,5,6,7)           121.8725         estimate D2E/DX2                !
 ! D17   D(15,5,6,10)          -29.8027         estimate D2E/DX2                !
 ! D18   D(5,6,7,8)           -161.205          estimate D2E/DX2                !
 ! D19   D(10,6,7,8)            -7.7533         estimate D2E/DX2                !
 ! D20   D(5,6,10,9)           161.3839         estimate D2E/DX2                !
 ! D21   D(7,6,10,9)             7.7581         estimate D2E/DX2                !
 ! D22   D(6,7,8,9)              4.4986         estimate D2E/DX2                !
 ! D23   D(7,8,9,10)             0.0071         estimate D2E/DX2                !
 ! D24   D(8,9,10,6)            -4.5154         estimate D2E/DX2                !
 --------------------------------------------------------------------------------
 Trust Radius=3.00D-01 FncErr=1.00D-07 GrdErr=1.00D-06 EigMax=2.50D+02 EigMin=1.00D-04
 Number of steps in this run=     69 maximum allowed number of steps=    100.
 GradGradGradGradGradGradGradGradGradGradGradGradGradGradGradGradGradGrad

                          Input orientation:                          
 ---------------------------------------------------------------------
 Center     Atomic      Atomic             Coordinates (Angstroms)
 Number     Number       Type             X           Y           Z
 ---------------------------------------------------------------------
      1          6           0        1.046970   -0.042830    0.077200
      2          7           0        0.158410    0.053350    1.019450
      3          7           0        0.523730    0.688510    2.151340
      4          7           0        0.639270   -0.607390   -1.095930
      5          7           0        2.350220    0.345360   -0.030920
      6          7           0        3.042490    0.348720    1.131810
      7          7           0        3.508140    1.503210    1.654980
      8          7           0        4.446150    1.103750    2.503410
      9          7           0        4.600640   -0.256690    2.406230
     10          7           0        3.762160   -0.732500    1.495190
     11          1           0       -0.226520    0.611530    2.843330
     12          1           0        0.632570    1.694620    1.989400
     13          1           0        0.824840   -0.022990   -1.903560
     14          1           0       -0.358880   -0.801850   -1.043190
     15          1           0        2.853450   -0.255990   -0.665570
 ---------------------------------------------------------------------
                    Distance matrix (angstroms):
                    1          2          3          4          5
     1  C    0.000000
     2  N    1.298701   0.000000
     3  N    2.260685   1.348355   0.000000
     4  N    1.364251   2.267738   3.498209   0.000000
     5  N    1.364127   2.447974   2.866370   2.229199   0.000000
     6  N    2.290767   2.901342   2.738439   3.413567   1.353215
     7  N    3.307112   3.704954   3.133179   4.500284   2.350246
     8  N    4.330770   4.657273   3.960020   5.511405   3.375042
     9  N    4.254255   4.663978   4.192799   5.299110   3.371432
    10  N    3.139840   3.718992   3.596836   4.059803   2.341873
    11  H    3.114713   1.945835   1.023548   4.213446   3.869334
    12  H    2.616671   1.964535   1.024855   3.849488   2.975318
    13  H    1.993275   2.998991   4.127846   1.014015   2.443204
    14  H    1.951358   2.292038   3.633895   1.018283   3.111271
    15  H    1.964819   3.193466   3.775534   2.282824   1.008783
                    6          7          8          9         10
     6  N    0.000000
     7  N    1.350327   0.000000
     8  N    2.102764   1.326373   0.000000
     9  N    2.102023   2.203447   1.372628   0.000000
    10  N    1.348706   2.255761   2.203671   1.326438   0.000000
    11  H    3.699297   4.019323   4.710804   4.924057   4.419668
    12  H    2.890436   2.901272   3.893164   4.441502   3.991176
    13  H    3.777514   4.710901   5.814191   5.734594   4.547830
    14  H    4.198066   5.248549   6.268811   6.065685   4.840574
    15  H    1.905777   2.984687   3.798423   3.533925   2.392007
                   11         12         13         14         15
    11  H    0.000000
    12  H    1.624905   0.000000
    13  H    4.903156   4.259377   0.000000
    14  H    4.137656   4.051165   1.657725   0.000000
    15  H    4.748809   3.973167   2.387921   3.280187   0.000000
 Stoichiometry    CH5N9
 Framework group  C1[X(CH5N9)]
 Deg. of freedom    39
 Full point group                 C1      NOp   1
 Largest Abelian subgroup         C1      NOp   1
 Largest concise Abelian subgroup C1      NOp   1
                         Standard orientation:                         
 ---------------------------------------------------------------------
 Center     Atomic      Atomic             Coordinates (Angstroms)
 Number     Number       Type             X           Y           Z
 ---------------------------------------------------------------------
      1          6           0        1.624405   -0.254445    0.030910
      2          7           0        1.911605    0.950141   -0.360385
      3          7           0        0.956350    1.890949   -0.217448
      4          7           0        2.627220   -1.177028   -0.035300
      5          7           0        0.505984   -0.831883    0.556783
      6          7           0       -0.663149   -0.286866    0.147791
      7          7           0       -1.472461    0.348162    1.022512
      8          7           0       -2.645382    0.366576    0.403496
      9          7           0       -2.552593   -0.336004   -0.772038
     10          7           0       -1.320047   -0.806572   -0.909279
     11          1           0        1.270587    2.764686   -0.648133
     12          1           0        0.811102    2.119995    0.770868
     13          1           0        2.789405   -1.651336    0.846150
     14          1           0        3.485195   -0.716136   -0.332547
     15          1           0        0.464589   -1.812870    0.325280
 ---------------------------------------------------------------------
 Rotational constants (GHZ):           2.9256447           0.9831867           0.8494552
 Standard basis: 6-31G(d) (6D, 7F)
 There are   160 symmetry adapted cartesian basis functions of A   symmetry.
 There are   160 symmetry adapted basis functions of A   symmetry.
   160 basis functions,   300 primitive gaussians,   160 cartesian basis functions
    37 alpha electrons       37 beta electrons
       nuclear repulsion energy       546.3974891246 Hartrees.
 NAtoms=   15 NActive=   15 NUniq=   15 SFac= 1.00D+00 NAtFMM=   60 NAOKFM=F Big=F
 Integral buffers will be    131072 words long.
 Raffenetti 2 integral format.
 Two-electron integral symmetry is turned on.
 Nuclear repulsion after empirical dispersion term =      546.3722868443 Hartrees.
 One-electron integrals computed using PRISM.
 NBasis=   160 RedAO= T EigKep=  2.29D-03  NBF=   160
 NBsUse=   160 1.00D-06 EigRej= -1.00D+00 NBFU=   160
 ExpMin= 1.61D-01 ExpMax= 4.17D+03 ExpMxC= 6.27D+02 IAcc=3 IRadAn=         5 AccDes= 0.00D+00
 Harris functional with IExCor=  402 and IRadAn=       5 diagonalized for initial guess.
 HarFok:  IExCor=  402 AccDes= 0.00D+00 IRadAn=         5 IDoV= 1 UseB2=F ITyADJ=14
 ICtDFT=  3500011 ScaDFX=  1.000000  1.000000  1.000000  1.000000
 FoFCou: FMM=F IPFlag=           0 FMFlag=      100000 FMFlg1=           0
         NFxFlg=           0 DoJE=T BraDBF=F KetDBF=T FulRan=T
         wScrn=  0.000000 ICntrl=       500 IOpCl=  0 I1Cent=   200000004 NGrid=           0
         NMat0=    1 NMatS0=      1 NMatT0=    0 NMatD0=    1 NMtDS0=    0 NMtDT0=    0
 Petite list used in FoFCou.
 Keep R1 ints in memory in canonical form, NReq=86904867.
 Requested convergence on RMS density matrix=1.00D-08 within  32 cycles.
 Requested convergence on MAX density matrix=1.00D-06.
 Requested convergence on             energy=1.00D-06.
 No special actions if energy rises.
 Integral accuracy reduced to 1.0D-05 until final iterations.
 EnCoef did     3 forward-backward iterations
 Failed to achieve initial convergence to 1.0D-08 in 10 cycles.
 Switch to full accuracy anyway.
 SCF Done:  E(RB3LYP) =  -533.704294370     A.U. after   18 cycles
            NFock= 18  Conv=0.30D-08     -V/T= 2.0086
 QCSCF skips out because SCF is already converged.

 **********************************************************************

            Population analysis using the SCF density.

 **********************************************************************

 Orbital symmetries:
       Occupied  (A) (A) (A) (A) (A) (A) (A) (A) (A) (A) (A) (A)
                 (A) (A) (A) (A) (A) (A) (A) (A) (A) (A) (A) (A)
                 (A) (A) (A) (A) (A) (A) (A) (A) (A) (A) (A) (A)
                 (A)
       Virtual   (A) (A) (A) (A) (A) (A) (A) (A) (A) (A) (A) (A)
                 (A) (A) (A) (A) (A) (A) (A) (A) (A) (A) (A) (A)
                 (A) (A) (A) (A) (A) (A) (A) (A) (A) (A) (A) (A)
                 (A) (A) (A) (A) (A) (A) (A) (A) (A) (A) (A) (A)
                 (A) (A) (A) (A) (A) (A) (A) (A) (A) (A) (A) (A)
                 (A) (A) (A) (A) (A) (A) (A) (A) (A) (A) (A) (A)
                 (A) (A) (A) (A) (A) (A) (A) (A) (A) (A) (A) (A)
                 (A) (A) (A) (A) (A) (A) (A) (A) (A) (A) (A) (A)
                 (A) (A) (A) (A) (A) (A) (A) (A) (A) (A) (A) (A)
                 (A) (A) (A) (A) (A) (A) (A) (A) (A) (A) (A) (A)
                 (A) (A) (A)
 The electronic state is 1-A.
 Alpha  occ. eigenvalues --  -14.51844 -14.44354 -14.44205 -14.43707 -14.42167
 Alpha  occ. eigenvalues --  -14.42133 -14.35929 -14.35754 -14.34913 -10.29830
 Alpha  occ. eigenvalues --   -1.20562  -1.07873  -1.00590  -0.98073  -0.95490
 Alpha  occ. eigenvalues --   -0.88898  -0.78589  -0.72099  -0.71288  -0.64058
 Alpha  occ. eigenvalues --   -0.61089  -0.57596  -0.52498  -0.51806  -0.49500
 Alpha  occ. eigenvalues --   -0.47426  -0.44576  -0.44138  -0.37589  -0.36444
 Alpha  occ. eigenvalues --   -0.34935  -0.34746  -0.33559  -0.33034  -0.30398
 Alpha  occ. eigenvalues --   -0.27816  -0.20170
 Alpha virt. eigenvalues --   -0.07417  -0.02781   0.01302   0.05796   0.07953
 Alpha virt. eigenvalues --    0.09298   0.12173   0.14867   0.16191   0.17401
 Alpha virt. eigenvalues --    0.17889   0.22953   0.24711   0.27850   0.29025
 Alpha virt. eigenvalues --    0.31724   0.38765   0.45132   0.52560   0.53873
 Alpha virt. eigenvalues --    0.57067   0.58677   0.59429   0.60813   0.61263
 Alpha virt. eigenvalues --    0.61981   0.62386   0.63421   0.65266   0.66438
 Alpha virt. eigenvalues --    0.68601   0.69402   0.70716   0.72918   0.73225
 Alpha virt. eigenvalues --    0.75597   0.77670   0.78985   0.80110   0.81574
 Alpha virt. eigenvalues --    0.83694   0.84348   0.84829   0.87483   0.88065
 Alpha virt. eigenvalues --    0.88820   0.89723   0.91597   0.93146   0.94840
 Alpha virt. eigenvalues --    0.95959   1.02583   1.04145   1.05805   1.09720
 Alpha virt. eigenvalues --    1.14492   1.17652   1.24026   1.26299   1.31044
 Alpha virt. eigenvalues --    1.33628   1.35589   1.38535   1.41436   1.46665
 Alpha virt. eigenvalues --    1.47763   1.48691   1.52287   1.54646   1.61244
 Alpha virt. eigenvalues --    1.64922   1.71898   1.72979   1.77264   1.82115
 Alpha virt. eigenvalues --    1.86099   1.86461   1.90788   1.94690   1.98661
 Alpha virt. eigenvalues --    2.00091   2.04519   2.09955   2.11426   2.14552
 Alpha virt. eigenvalues --    2.18786   2.21822   2.22710   2.24136   2.28882
 Alpha virt. eigenvalues --    2.31329   2.34557   2.37025   2.38623   2.41120
 Alpha virt. eigenvalues --    2.42803   2.44871   2.50471   2.50773   2.56395
 Alpha virt. eigenvalues --    2.56907   2.60417   2.66608   2.67739   2.69827
 Alpha virt. eigenvalues --    2.70548   2.72600   2.74240   2.93700   2.94638
 Alpha virt. eigenvalues --    3.03451   3.09802   3.16726   3.38474   3.52598
 Alpha virt. eigenvalues --    3.61866   3.76698   3.83540   3.96395   4.00205
 Alpha virt. eigenvalues --    4.05604   4.17413   4.32792
          Condensed to atoms (all electrons):
               1          2          3          4          5          6
     1  C    4.435172   0.640298  -0.085431   0.334545   0.208275  -0.080295
     2  N    0.640298   6.781920   0.184229  -0.101346  -0.068059  -0.005731
     3  N   -0.085431   0.184229   6.865481   0.006844  -0.008319  -0.003262
     4  N    0.334545  -0.101346   0.006844   7.000603  -0.100156   0.003767
     5  N    0.208275  -0.068059  -0.008319  -0.100156   6.964899   0.237813
     6  N   -0.080295  -0.005731  -0.003262   0.003767   0.237813   6.704286
     7  N    0.002879   0.000397  -0.003915  -0.000111  -0.055501   0.138333
     8  N   -0.000207  -0.000012   0.000356   0.000003   0.006164  -0.079097
     9  N   -0.000294  -0.000037   0.000257   0.000002   0.007467  -0.084793
    10  N    0.007552   0.000591  -0.001030  -0.000210  -0.070022   0.158912
    11  H    0.004998  -0.049433   0.330342  -0.000185  -0.000215   0.000270
    12  H   -0.011011  -0.042182   0.303953  -0.000082   0.005013  -0.002355
    13  H   -0.030836   0.002143  -0.000196   0.305130  -0.000371   0.000283
    14  H   -0.019695   0.011270  -0.000694   0.300772   0.008484  -0.000191
    15  H   -0.034255   0.002622   0.000415   0.009578   0.308273  -0.045769
               7          8          9         10         11         12
     1  C    0.002879  -0.000207  -0.000294   0.007552   0.004998  -0.011011
     2  N    0.000397  -0.000012  -0.000037   0.000591  -0.049433  -0.042182
     3  N   -0.003915   0.000356   0.000257  -0.001030   0.330342   0.303953
     4  N   -0.000111   0.000003   0.000002  -0.000210  -0.000185  -0.000082
     5  N   -0.055501   0.006164   0.007467  -0.070022  -0.000215   0.005013
     6  N    0.138333  -0.079097  -0.084793   0.158912   0.000270  -0.002355
     7  N    6.847590   0.223895  -0.047220  -0.085364   0.000107   0.003776
     8  N    0.223895   6.800469   0.169250  -0.048501  -0.000010  -0.000004
     9  N   -0.047220   0.169250   6.802570   0.224820  -0.000006  -0.000001
    10  N   -0.085364  -0.048501   0.224820   6.853099   0.000007   0.000182
    11  H    0.000107  -0.000010  -0.000006   0.000007   0.428205  -0.040966
    12  H    0.003776  -0.000004  -0.000001   0.000182  -0.040966   0.467004
    13  H   -0.000003   0.000000   0.000000  -0.000009   0.000002   0.000157
    14  H    0.000003  -0.000000  -0.000000  -0.000002  -0.000109   0.000074
    15  H    0.002251   0.000128   0.000067   0.007342   0.000021  -0.000268
              13         14         15
     1  C   -0.030836  -0.019695  -0.034255
     2  N    0.002143   0.011270   0.002622
     3  N   -0.000196  -0.000694   0.000415
     4  N    0.305130   0.300772   0.009578
     5  N   -0.000371   0.008484   0.308273
     6  N    0.000283  -0.000191  -0.045769
     7  N   -0.000003   0.000003   0.002251
     8  N    0.000000  -0.000000   0.000128
     9  N    0.000000  -0.000000   0.000067
    10  N   -0.000009  -0.000002   0.007342
    11  H    0.000002  -0.000109   0.000021
    12  H    0.000157   0.000074  -0.000268
    13  H    0.425974  -0.026507  -0.002661
    14  H   -0.026507   0.386122  -0.000047
    15  H   -0.002661  -0.000047   0.381937
 Mulliken charges:
               1
     1  C    0.628305
     2  N   -0.356669
     3  N   -0.589030
     4  N   -0.759155
     5  N   -0.443745
     6  N    0.057830
     7  N   -0.027116
     8  N   -0.072434
     9  N   -0.072080
    10  N   -0.047368
    11  H    0.326972
    12  H    0.316711
    13  H    0.326893
    14  H    0.340520
    15  H    0.370366
 Sum of Mulliken charges =  -0.00000
 Mulliken charges with hydrogens summed into heavy atoms:
               1
     1  C    0.628305
     2  N   -0.356669
     3  N    0.054653
     4  N   -0.091742
     5  N   -0.073379
     6  N    0.057830
     7  N   -0.027116
     8  N   -0.072434
     9  N   -0.072080
    10  N   -0.047368
 Electronic spatial extent (au):  <R**2>=           1347.9965
 Charge=             -0.0000 electrons
 Dipole moment (field-independent basis, Debye):
    X=              4.4903    Y=             -0.9919    Z=              2.2006  Tot=              5.0980
 Quadrupole moment (field-independent basis, Debye-Ang):
   XX=            -61.5609   YY=            -48.6816   ZZ=            -60.2465
   XY=             -0.5026   XZ=              2.8759   YZ=             -3.3328
 Traceless Quadrupole moment (field-independent basis, Debye-Ang):
   XX=             -4.7312   YY=              8.1481   ZZ=             -3.4168
   XY=             -0.5026   XZ=              2.8759   YZ=             -3.3328
 Octapole moment (field-independent basis, Debye-Ang**2):
  XXX=             61.0512  YYY=             15.1912  ZZZ=              1.4456  XYY=             10.9225
  XXY=            -12.2896  XXZ=             11.1502  XZZ=              8.7017  YZZ=              2.4883
  YYZ=              6.8880  XYZ=             -1.4795
 Hexadecapole moment (field-independent basis, Debye-Ang**3):
 XXXX=          -1176.6121 YYYY=           -287.6945 ZZZZ=           -169.8557 XXXY=            -36.3494
 XXXZ=             10.1118 YYYX=             27.3479 YYYZ=            -19.7333 ZZZX=              3.1207
 ZZZY=             -5.1634 XXYY=           -254.3157 XXZZ=           -232.7256 YYZZ=            -82.7864
 XXYZ=            -24.0938 YYXZ=              8.6951 ZZXY=             -1.7942
 N-N= 5.463722868443D+02 E-N=-2.336968271142D+03  KE= 5.291278068035D+02
 Calling FoFJK, ICntrl=      2127 FMM=F ISym2X=0 I1Cent= 0 IOpClX= 0 NMat=1 NMatS=1 NMatT=0.
 ***** Axes restored to original set *****
 -------------------------------------------------------------------
 Center     Atomic                   Forces (Hartrees/Bohr)
 Number     Number              X              Y              Z
 -------------------------------------------------------------------
      1        6          -0.060545298   -0.007679578    0.019626352
      2        7           0.003932970   -0.012712166   -0.047328822
      3        7           0.013159103    0.024556500    0.050315503
      4        7          -0.013987083   -0.019638671   -0.029930928
      5        7           0.016655290    0.015174329   -0.000371848
      6        7           0.044782955    0.011938352    0.013761579
      7        7           0.015094277   -0.029402643    0.021169324
      8        7          -0.020032686   -0.005888031   -0.017403886
      9        7          -0.013467405    0.004171704   -0.019236880
     10        7           0.003730079    0.028070215    0.029085416
     11        1           0.002416574   -0.003138480   -0.005973141
     12        1           0.003750956   -0.002201442    0.000475765
     13        1           0.000831227    0.000637356   -0.003695311
     14        1           0.002822146   -0.000591635   -0.000827569
     15        1           0.000856895   -0.003295811   -0.009665555
 -------------------------------------------------------------------
 Cartesian Forces:  Max     0.060545298 RMS     0.020468135

 GradGradGradGradGradGradGradGradGradGradGradGradGradGradGradGradGradGrad
 Berny optimization.
 FormGI is forming the generalized inverse of G from B-inverse, IUseBI=4.
 Internal  Forces:  Max     0.051912033 RMS     0.015162204
 Search for a local minimum.
 Step number   1 out of a maximum of   69
 All quantities printed in internal units (Hartrees-Bohrs-Radians)
 Mixed Optimization -- RFO/linear search
 Second derivative matrix not updated -- first step.
 ITU=  0
     Eigenvalues ---    0.01914   0.01978   0.01987   0.02038   0.02165
     Eigenvalues ---    0.02166   0.02387   0.02677   0.03032   0.04444
     Eigenvalues ---    0.05082   0.06008   0.12840   0.12957   0.16000
     Eigenvalues ---    0.16000   0.16000   0.23272   0.23434   0.24451
     Eigenvalues ---    0.24965   0.24984   0.24996   0.25000   0.43572
     Eigenvalues ---    0.43777   0.44613   0.45307   0.46177   0.46407
     Eigenvalues ---    0.52097   0.52122   0.52455   0.53087   0.54343
     Eigenvalues ---    0.55373   0.57493   0.60022   0.67555
 RFO step:  Lambda=-3.43921870D-02 EMin= 1.91368444D-02
 Linear search not attempted -- first point.
 Iteration  1 RMS(Cart)=  0.16658605 RMS(Int)=  0.01063700
 Iteration  2 RMS(Cart)=  0.01638753 RMS(Int)=  0.00112820
 Iteration  3 RMS(Cart)=  0.00023416 RMS(Int)=  0.00111805
 Iteration  4 RMS(Cart)=  0.00000009 RMS(Int)=  0.00111805
 Variable       Old X    -DE/DX   Delta X   Delta X   Delta X     New X
                                 (Linear)    (Quad)   (Total)
    R1        2.45419  -0.01725   0.00000  -0.02430  -0.02430   2.42989
    R2        2.57806   0.04082   0.00000   0.07351   0.07351   2.65157
    R3        2.57783   0.05003   0.00000   0.09005   0.09005   2.66787
    R4        2.54802   0.05191   0.00000   0.08827   0.08827   2.63629
    R5        1.93423  -0.00557   0.00000  -0.01180  -0.01180   1.92242
    R6        1.93670  -0.00184   0.00000  -0.00391  -0.00391   1.93279
    R7        1.91621   0.00346   0.00000   0.00710   0.00710   1.92331
    R8        1.92428  -0.00270   0.00000  -0.00561  -0.00561   1.91866
    R9        2.55721   0.03895   0.00000   0.06740   0.06740   2.62461
   R10        1.90632   0.00847   0.00000   0.01708   0.01708   1.92340
   R11        2.55175  -0.01570   0.00000  -0.02729  -0.02676   2.52499
   R12        2.54868  -0.01496   0.00000  -0.02562  -0.02525   2.52344
   R13        2.50648  -0.02826   0.00000  -0.04440  -0.04445   2.46204
   R14        2.59389  -0.01684   0.00000  -0.03088  -0.03142   2.56247
   R15        2.50660  -0.02670   0.00000  -0.04155  -0.04187   2.46474
    A1        2.03764   0.01631   0.00000   0.05761   0.05754   2.09518
    A2        2.33241  -0.02871   0.00000  -0.10080  -0.10090   2.23150
    A3        1.91252   0.01245   0.00000   0.04399   0.04391   1.95643
    A4        2.04718  -0.00260   0.00000  -0.00916  -0.00916   2.03802
    A5        1.91082  -0.00669   0.00000  -0.03105  -0.03094   1.87988
    A6        1.93754   0.00246   0.00000   0.01874   0.01895   1.95648
    A7        1.83227   0.00379   0.00000   0.02444   0.02458   1.85685
    A8        1.97328   0.00239   0.00000   0.01507   0.01495   1.98822
    A9        1.90438   0.00167   0.00000   0.01154   0.01141   1.91578
   A10        1.90784  -0.00064   0.00000   0.00197   0.00175   1.90959
   A11        2.00573   0.01488   0.00000   0.06310   0.06188   2.06761
   A12        1.93565  -0.00706   0.00000  -0.01896  -0.02144   1.91422
   A13        1.86173   0.00271   0.00000   0.04221   0.04121   1.90294
   A14        2.10765   0.00646   0.00000   0.03968   0.03613   2.14378
   A15        2.09727   0.00871   0.00000   0.04806   0.04455   2.14183
   A16        1.97905  -0.01108   0.00000  -0.02618  -0.02936   1.94970
   A17        1.80721   0.00688   0.00000   0.02155   0.02218   1.82939
   A18        1.91007  -0.00008   0.00000  -0.00097  -0.00170   1.90836
   A19        1.91029  -0.00246   0.00000  -0.00808  -0.00919   1.90110
   A20        1.80780   0.00755   0.00000   0.02591   0.02596   1.83375
    D1       -3.06726  -0.01158   0.00000  -0.17839  -0.17795   3.03797
    D2        0.03205  -0.00960   0.00000  -0.14898  -0.14942  -0.11737
    D3        2.20085   0.00125   0.00000   0.02031   0.02130   2.22215
    D4        0.07392  -0.00073   0.00000  -0.00062   0.00020   0.07412
    D5       -0.90827   0.00077   0.00000   0.00136   0.00054  -0.90773
    D6       -3.03520  -0.00121   0.00000  -0.01957  -0.02055  -3.05576
    D7        0.53588  -0.00764   0.00000  -0.09623  -0.09524   0.44063
    D8        2.64889   0.00129   0.00000  -0.00935  -0.00915   2.63974
    D9       -2.64579  -0.00561   0.00000  -0.06782  -0.06802  -2.71381
   D10       -0.53277   0.00331   0.00000   0.01906   0.01807  -0.51470
   D11       -3.04056  -0.00098   0.00000  -0.02602  -0.02607  -3.06663
   D12        1.22775  -0.00303   0.00000  -0.04807  -0.04802   1.17973
   D13       -2.08105  -0.00162   0.00000  -0.01992  -0.01977  -2.10082
   D14       -2.00316   0.00385   0.00000   0.07734   0.08005  -1.92311
   D15        1.63279  -0.00267   0.00000  -0.05902  -0.05945   1.57334
   D16        2.12708   0.00101   0.00000   0.02804   0.02847   2.15555
   D17       -0.52016  -0.00550   0.00000  -0.10832  -0.11104  -0.63119
   D18       -2.81356  -0.00579   0.00000  -0.07610  -0.07481  -2.88837
   D19       -0.13532   0.00518   0.00000   0.06991   0.06846  -0.06686
   D20        2.81668   0.00399   0.00000   0.05104   0.04999   2.86667
   D21        0.13540  -0.00629   0.00000  -0.09173  -0.09066   0.04475
   D22        0.07851  -0.00118   0.00000  -0.01689  -0.01688   0.06164
   D23        0.00012  -0.00198   0.00000  -0.03748  -0.03722  -0.03709
   D24       -0.07881   0.00420   0.00000   0.07378   0.07405  -0.00476
         Item               Value     Threshold  Converged?
 Maximum Force            0.051912     0.000450     NO 
 RMS     Force            0.015162     0.000300     NO 
 Maximum Displacement     0.752764     0.001800     NO 
 RMS     Displacement     0.172035     0.001200     NO 
 Predicted change in Energy=-2.043462D-02
 GradGradGradGradGradGradGradGradGradGradGradGradGradGradGradGradGradGrad

                          Input orientation:                          
 ---------------------------------------------------------------------
 Center     Atomic      Atomic             Coordinates (Angstroms)
 Number     Number       Type             X           Y           Z
 ---------------------------------------------------------------------
      1          6           0        0.972515   -0.043505   -0.005854
      2          7           0        0.151651    0.120026    0.970274
      3          7           0        0.689633    0.575743    2.174060
      4          7           0        0.529570   -0.616069   -1.207852
      5          7           0        2.340050    0.303657   -0.055260
      6          7           0        3.045872    0.385124    1.138126
      7          7           0        3.478416    1.542697    1.646335
      8          7           0        4.340209    1.203021    2.562500
      9          7           0        4.490842   -0.144585    2.559821
     10          7           0        3.687672   -0.658244    1.669749
     11          1           0       -0.058778    0.586655    2.863020
     12          1           0        1.030915    1.537319    2.103421
     13          1           0        0.746630   -0.061910   -2.033476
     14          1           0       -0.471941   -0.776792   -1.163054
     15          1           0        2.830383   -0.324326   -0.688639
 ---------------------------------------------------------------------
                    Distance matrix (angstroms):
                    1          2          3          4          5
     1  C    0.000000
     2  N    1.285841   0.000000
     3  N    2.283751   1.395065   0.000000
     4  N    1.403149   2.329997   3.589340   0.000000
     5  N    1.411777   2.423744   2.787074   2.334995   0.000000
     6  N    2.406495   2.911179   2.580961   3.582984   1.388881
     7  N    3.394894   3.680818   2.998467   4.637062   2.393015
     8  N    4.414933   4.609998   3.724389   5.660884   3.414990
     9  N    4.355632   4.628743   3.888043   5.487197   3.415476
    10  N    3.249250   3.687603   3.281051   4.272701   2.391023
    11  H    3.113054   1.960743   1.017302   4.285405   3.788248
    12  H    2.636562   2.016395   1.022786   3.981577   2.809923
    13  H    2.040248   3.067509   4.255962   1.017773   2.566313
    14  H    1.990797   2.396713   3.783508   1.015314   3.209653
    15  H    1.999182   3.181988   3.686188   2.376644   1.017820
                    6          7          8          9         10
     6  N    0.000000
     7  N    1.336168   0.000000
     8  N    2.091197   1.302853   0.000000
     9  N    2.095173   2.169420   1.356001   0.000000
    10  N    1.335346   2.210990   2.164974   1.304284   0.000000
    11  H    3.557348   3.860839   4.452112   4.617974   4.124264
    12  H    2.513841   2.489823   3.357668   3.874041   3.473748
    13  H    3.942767   4.855762   5.969661   5.926579   4.766468
    14  H    4.361248   5.373827   6.399703   6.236080   5.034005
    15  H    1.971503   3.059056   3.896443   3.652660   2.531490
                   11         12         13         14         15
    11  H    0.000000
    12  H    1.633458   0.000000
    13  H    5.004497   4.444353   0.000000
    14  H    4.270710   4.275927   1.659399   0.000000
    15  H    4.668128   3.807809   2.493887   3.366770   0.000000
 Stoichiometry    CH5N9
 Framework group  C1[X(CH5N9)]
 Deg. of freedom    39
 Full point group                 C1      NOp   1
 Largest Abelian subgroup         C1      NOp   1
 Largest concise Abelian subgroup C1      NOp   1
                         Standard orientation:                         
 ---------------------------------------------------------------------
 Center     Atomic      Atomic             Coordinates (Angstroms)
 Number     Number       Type             X           Y           Z
 ---------------------------------------------------------------------
      1          6           0        1.734932   -0.171262    0.032188
      2          7           0        1.835082    1.084509   -0.225481
      3          7           0        0.653345    1.825725   -0.208082
      4          7           0        2.857198   -1.004830   -0.088275
      5          7           0        0.591000   -0.879331    0.460177
      6          7           0       -0.660923   -0.367369    0.144622
      7          7           0       -1.484281    0.149430    1.061326
      8          7           0       -2.640801    0.224110    0.466086
      9          7           0       -2.542939   -0.314303   -0.774589
     10          7           0       -1.309923   -0.688015   -0.977488
     11          1           0        0.878842    2.774466   -0.497812
     12          1           0        0.257966    1.897468    0.732461
     13          1           0        3.048946   -1.561231    0.742094
     14          1           0        3.674955   -0.448637   -0.318025
     15          1           0        0.645384   -1.843976    0.140085
 ---------------------------------------------------------------------
 Rotational constants (GHZ):           3.0901095           0.9567967           0.8447180
 Standard basis: 6-31G(d) (6D, 7F)
 There are   160 symmetry adapted cartesian basis functions of A   symmetry.
 There are   160 symmetry adapted basis functions of A   symmetry.
   160 basis functions,   300 primitive gaussians,   160 cartesian basis functions
    37 alpha electrons       37 beta electrons
       nuclear repulsion energy       545.6870818755 Hartrees.
 NAtoms=   15 NActive=   15 NUniq=   15 SFac= 1.00D+00 NAtFMM=   60 NAOKFM=F Big=F
 Integral buffers will be    131072 words long.
 Raffenetti 2 integral format.
 Two-electron integral symmetry is turned on.
 Nuclear repulsion after empirical dispersion term =      545.6617027241 Hartrees.
 One-electron integrals computed using PRISM.
 NBasis=   160 RedAO= T EigKep=  2.46D-03  NBF=   160
 NBsUse=   160 1.00D-06 EigRej= -1.00D+00 NBFU=   160
 Initial guess from the checkpoint file:  "JID_623.chk"
 B after Tr=     0.000000    0.000000   -0.000000
         Rot=    0.998812   -0.037063   -0.002304   -0.031554 Ang=  -5.59 deg.
 ExpMin= 1.61D-01 ExpMax= 4.17D+03 ExpMxC= 6.27D+02 IAcc=2 IRadAn=         4 AccDes= 0.00D+00
 Harris functional with IExCor=  402 and IRadAn=       4 diagonalized for initial guess.
 HarFok:  IExCor=  402 AccDes= 0.00D+00 IRadAn=         4 IDoV= 1 UseB2=F ITyADJ=14
 ICtDFT=  3500011 ScaDFX=  1.000000  1.000000  1.000000  1.000000
 FoFCou: FMM=F IPFlag=           0 FMFlag=      100000 FMFlg1=           0
         NFxFlg=           0 DoJE=T BraDBF=F KetDBF=T FulRan=T
         wScrn=  0.000000 ICntrl=       500 IOpCl=  0 I1Cent=   200000004 NGrid=           0
         NMat0=    1 NMatS0=      1 NMatT0=    0 NMatD0=    1 NMtDS0=    0 NMtDT0=    0
 Petite list used in FoFCou.
 Keep R1 ints in memory in canonical form, NReq=86904867.
 Requested convergence on RMS density matrix=1.00D-08 within  32 cycles.
 Requested convergence on MAX density matrix=1.00D-06.
 Requested convergence on             energy=1.00D-06.
 No special actions if energy rises.
 Integral accuracy reduced to 1.0D-05 until final iterations.
 Initial convergence to 1.0D-05 achieved.  Increase integral accuracy.
 SCF Done:  E(RB3LYP) =  -533.721615037     A.U. after   14 cycles
            NFock= 14  Conv=0.77D-08     -V/T= 2.0091
 QCSCF skips out because SCF is already converged.
 Calling FoFJK, ICntrl=      2127 FMM=F ISym2X=0 I1Cent= 0 IOpClX= 0 NMat=1 NMatS=1 NMatT=0.
 ***** Axes restored to original set *****
 -------------------------------------------------------------------
 Center     Atomic                   Forces (Hartrees/Bohr)
 Number     Number              X              Y              Z
 -------------------------------------------------------------------
      1        6          -0.022256782    0.001320199    0.012442780
      2        7           0.001947043   -0.003548698   -0.017535451
      3        7           0.003057285    0.004732167    0.016778242
      4        7           0.005495415    0.001041038   -0.000141395
      5        7           0.004292342    0.000343541   -0.000432456
      6        7           0.018214515   -0.003217000   -0.003894763
      7        7           0.000481876   -0.001350971    0.002857287
      8        7          -0.005986388    0.001714649   -0.006520630
      9        7          -0.009635061   -0.002133584   -0.005476715
     10        7           0.002144347    0.001823515    0.002543668
     11        1          -0.001551121   -0.001114958   -0.003296716
     12        1          -0.000762005   -0.000908585   -0.001645420
     13        1           0.000578855    0.000938761    0.000875240
     14        1           0.000594772   -0.000432507    0.002038023
     15        1           0.003384907    0.000792433    0.001408307
 -------------------------------------------------------------------
 Cartesian Forces:  Max     0.022256782 RMS     0.006614872

 GradGradGradGradGradGradGradGradGradGradGradGradGradGradGradGradGradGrad
 Berny optimization.
 Using GEDIIS/GDIIS optimizer.
 FormGI is forming the generalized inverse of G from B-inverse, IUseBI=4.
 Internal  Forces:  Max     0.017442656 RMS     0.005357930
 Search for a local minimum.
 Step number   2 out of a maximum of   69
 All quantities printed in internal units (Hartrees-Bohrs-Radians)
 Mixed Optimization -- RFO/linear search
 Update second derivatives using D2CorX and points    1    2
 DE= -1.73D-02 DEPred=-2.04D-02 R= 8.48D-01
 TightC=F SS=  1.41D+00  RLast= 4.31D-01 DXNew= 5.0454D-01 1.2931D+00
 Trust test= 8.48D-01 RLast= 4.31D-01 DXMaxT set to 5.05D-01
 ITU=  1  0
 Use linear search instead of GDIIS.
     Eigenvalues ---    0.01915   0.01978   0.01996   0.02015   0.02163
     Eigenvalues ---    0.02175   0.02339   0.02390   0.03333   0.04087
     Eigenvalues ---    0.05120   0.05809   0.12851   0.13581   0.15698
     Eigenvalues ---    0.16000   0.16040   0.22131   0.24013   0.24453
     Eigenvalues ---    0.24812   0.24991   0.25000   0.31225   0.43381
     Eigenvalues ---    0.43664   0.44526   0.44949   0.45335   0.46285
     Eigenvalues ---    0.46563   0.52246   0.52881   0.53004   0.54068
     Eigenvalues ---    0.57207   0.57525   0.59908   0.67312
 RFO step:  Lambda=-7.31654745D-03 EMin= 1.91482346D-02
 Quartic linear search produced a step of  0.01045.
 Iteration  1 RMS(Cart)=  0.08190451 RMS(Int)=  0.00287082
 Iteration  2 RMS(Cart)=  0.00342255 RMS(Int)=  0.00091573
 Iteration  3 RMS(Cart)=  0.00000814 RMS(Int)=  0.00091572
 Iteration  4 RMS(Cart)=  0.00000000 RMS(Int)=  0.00091572
 Variable       Old X    -DE/DX   Delta X   Delta X   Delta X     New X
                                 (Linear)    (Quad)   (Total)
    R1        2.42989  -0.00615  -0.00025  -0.01343  -0.01368   2.41620
    R2        2.65157  -0.00511   0.00077   0.00362   0.00438   2.65595
    R3        2.66787   0.01233   0.00094   0.03965   0.04059   2.70846
    R4        2.63629   0.01139   0.00092   0.03630   0.03723   2.67352
    R5        1.92242  -0.00110  -0.00012  -0.00461  -0.00474   1.91769
    R6        1.93279  -0.00100  -0.00004  -0.00296  -0.00300   1.92979
    R7        1.92331  -0.00008   0.00007   0.00112   0.00119   1.92451
    R8        1.91866  -0.00043  -0.00006  -0.00196  -0.00202   1.91665
    R9        2.62461  -0.00655   0.00070   0.00030   0.00100   2.62561
   R10        1.92340   0.00027   0.00018   0.00365   0.00383   1.92723
   R11        2.52499  -0.00385  -0.00028  -0.01272  -0.01242   2.51257
   R12        2.52344  -0.00458  -0.00026  -0.01380  -0.01348   2.50995
   R13        2.46204  -0.00951  -0.00046  -0.02321  -0.02392   2.43811
   R14        2.56247   0.00061  -0.00033  -0.00317  -0.00419   2.55828
   R15        2.46474  -0.00956  -0.00044  -0.02296  -0.02362   2.44112
    A1        2.09518  -0.00268   0.00060  -0.00019   0.00041   2.09559
    A2        2.23150   0.01744  -0.00105   0.04985   0.04880   2.28030
    A3        1.95643  -0.01477   0.00046  -0.04965  -0.04919   1.90724
    A4        2.03802   0.01665  -0.00010   0.06314   0.06304   2.10106
    A5        1.87988  -0.00545  -0.00032  -0.04459  -0.04515   1.83473
    A6        1.95648  -0.00040   0.00020  -0.01245  -0.01252   1.94397
    A7        1.85685   0.00192   0.00026   0.00821   0.00801   1.86486
    A8        1.98822  -0.00166   0.00016  -0.00820  -0.00808   1.98015
    A9        1.91578  -0.00217   0.00012  -0.01198  -0.01189   1.90390
   A10        1.90959   0.00191   0.00002   0.01007   0.01003   1.91963
   A11        2.06761   0.00662   0.00065   0.03841   0.03896   2.10656
   A12        1.91422   0.00132  -0.00022   0.01160   0.01143   1.92564
   A13        1.90294  -0.00571   0.00043  -0.02725  -0.02712   1.87582
   A14        2.14378  -0.00446   0.00038   0.00153  -0.00251   2.14127
   A15        2.14183   0.00015   0.00047   0.02170   0.01796   2.15979
   A16        1.94970   0.00538  -0.00031   0.02123   0.01879   1.96849
   A17        1.82939  -0.00353   0.00023  -0.01375  -0.01233   1.81706
   A18        1.90836   0.00036  -0.00002   0.00298   0.00254   1.91090
   A19        1.90110   0.00236  -0.00010   0.00900   0.00853   1.90963
   A20        1.83375  -0.00456   0.00027  -0.01795  -0.01645   1.81730
    D1        3.03797   0.00007  -0.00186  -0.02529  -0.02717   3.01080
    D2       -0.11737  -0.00013  -0.00156  -0.02460  -0.02614  -0.14352
    D3        2.22215  -0.00073   0.00022  -0.02025  -0.02001   2.20214
    D4        0.07412  -0.00038   0.00000  -0.01839  -0.01841   0.05571
    D5       -0.90773  -0.00078   0.00001  -0.02153  -0.02150  -0.92923
    D6       -3.05576  -0.00043  -0.00021  -0.01967  -0.01990  -3.07566
    D7        0.44063   0.00159  -0.00100   0.02213   0.02092   0.46155
    D8        2.63974   0.00029  -0.00010   0.02656   0.02668   2.66642
    D9       -2.71381   0.00145  -0.00071   0.02303   0.02210  -2.69171
   D10       -0.51470   0.00015   0.00019   0.02746   0.02786  -0.48683
   D11       -3.06663  -0.00081  -0.00027  -0.02433  -0.02425  -3.09088
   D12        1.17973   0.00042  -0.00050   0.00010  -0.00076   1.17897
   D13       -2.10082   0.00230  -0.00021   0.03373   0.03344  -2.06738
   D14       -1.92311   0.00339   0.00084   0.08853   0.08925  -1.83386
   D15        1.57334  -0.00150  -0.00062  -0.07518  -0.07602   1.49732
   D16        2.15555   0.00136   0.00030   0.06572   0.06624   2.22179
   D17       -0.63119  -0.00354  -0.00116  -0.09799  -0.09903  -0.73022
   D18       -2.88837  -0.00368  -0.00078  -0.13352  -0.13366  -3.02203
   D19       -0.06686   0.00002   0.00072   0.01476   0.01563  -0.05123
   D20        2.86667   0.00328   0.00052   0.14715   0.14888   3.01555
   D21        0.04475   0.00056  -0.00095   0.00337   0.00211   0.04685
   D22        0.06164  -0.00085  -0.00018  -0.02743  -0.02730   0.03434
   D23       -0.03709   0.00099  -0.00039   0.03014   0.02974  -0.00735
   D24       -0.00476  -0.00091   0.00077  -0.01959  -0.01847  -0.02323
         Item               Value     Threshold  Converged?
 Maximum Force            0.017443     0.000450     NO 
 RMS     Force            0.005358     0.000300     NO 
 Maximum Displacement     0.348764     0.001800     NO 
 RMS     Displacement     0.082734     0.001200     NO 
 Predicted change in Energy=-4.036288D-03
 GradGradGradGradGradGradGradGradGradGradGradGradGradGradGradGradGradGrad

                          Input orientation:                          
 ---------------------------------------------------------------------
 Center     Atomic      Atomic             Coordinates (Angstroms)
 Number     Number       Type             X           Y           Z
 ---------------------------------------------------------------------
      1          6           0        0.974851   -0.028887    0.022745
      2          7           0        0.141296    0.145306    0.976506
      3          7           0        0.586990    0.586456    2.244694
      4          7           0        0.552933   -0.615070   -1.182957
      5          7           0        2.367991    0.294667   -0.070503
      6          7           0        3.155368    0.375503    1.071413
      7          7           0        3.555404    1.533834    1.587224
      8          7           0        4.369661    1.194414    2.528701
      9          7           0        4.494656   -0.153354    2.553576
     10          7           0        3.751639   -0.670557    1.632090
     11          1           0       -0.243336    0.597489    2.828002
     12          1           0        0.933219    1.546329    2.204444
     13          1           0        0.773209   -0.055276   -2.004697
     14          1           0       -0.445840   -0.785514   -1.137167
     15          1           0        2.835599   -0.336531   -0.720901
 ---------------------------------------------------------------------
                    Distance matrix (angstroms):
                    1          2          3          4          5
     1  C    0.000000
     2  N    1.278599   0.000000
     3  N    2.337977   1.414764   0.000000
     4  N    1.405470   2.326134   3.632302   0.000000
     5  N    1.433256   2.465098   2.935514   2.315084   0.000000
     6  N    2.453139   3.024339   2.831547   3.582749   1.389413
     7  N    3.398374   3.735922   3.184537   4.615899   2.386114
     8  N    4.393292   4.624825   3.841728   5.622994   3.401778
     9  N    4.337006   4.639837   3.989058   5.450876   3.407231
    10  N    3.272962   3.758989   3.459822   4.261372   2.396865
    11  H    3.121825   1.944337   1.014796   4.265224   3.913063
    12  H    2.691254   2.024311   1.021201   4.036180   2.966583
    13  H    2.037616   3.054033   4.301607   1.018404   2.531185
    14  H    1.983997   2.383017   3.792891   1.014246   3.197220
    15  H    2.027322   3.220656   3.834436   2.345558   1.019846
                    6          7          8          9         10
     6  N    0.000000
     7  N    1.329594   0.000000
     8  N    2.066111   1.290194   0.000000
     9  N    2.066444   2.159314   1.353781   0.000000
    10  N    1.328210   2.213564   2.159625   1.291786   0.000000
    11  H    3.832241   4.104472   4.661077   4.804960   4.358666
    12  H    2.755457   2.693877   3.469600   3.961648   3.631207
    13  H    3.914423   4.813292   5.920126   5.885291   4.740869
    14  H    4.381151   5.367647   6.367712   6.199171   5.029993
    15  H    1.954900   3.056768   3.906028   3.675354   2.547012
                   11         12         13         14         15
    11  H    0.000000
    12  H    1.635054   0.000000
    13  H    4.981409   4.506396   0.000000
    14  H    4.204315   4.301820   1.664914   0.000000
    15  H    4.790297   3.965080   2.445545   3.338069   0.000000
 Stoichiometry    CH5N9
 Framework group  C1[X(CH5N9)]
 Deg. of freedom    39
 Full point group                 C1      NOp   1
 Largest Abelian subgroup         C1      NOp   1
 Largest concise Abelian subgroup C1      NOp   1
                         Standard orientation:                         
 ---------------------------------------------------------------------
 Center     Atomic      Atomic             Coordinates (Angstroms)
 Number     Number       Type             X           Y           Z
 ---------------------------------------------------------------------
      1          6           0        1.719829   -0.188406    0.033953
      2          7           0        1.883535    1.060735   -0.184363
      3          7           0        0.772395    1.936369   -0.198069
      4          7           0        2.800411   -1.075735   -0.108653
      5          7           0        0.557045   -0.920489    0.441640
      6          7           0       -0.716785   -0.446083    0.153951
      7          7           0       -1.502095    0.106038    1.073882
      8          7           0       -2.627480    0.275461    0.466095
      9          7           0       -2.537214   -0.209097   -0.794769
     10          7           0       -1.349824   -0.678771   -0.990277
     11          1           0        1.154651    2.845425   -0.437459
     12          1           0        0.356913    2.025201    0.730550
     13          1           0        2.965350   -1.649505    0.716411
     14          1           0        3.635704   -0.547266   -0.336031
     15          1           0        0.608492   -1.882414    0.106769
 ---------------------------------------------------------------------
 Rotational constants (GHZ):           2.9029743           0.9539962           0.8297742
 Standard basis: 6-31G(d) (6D, 7F)
 There are   160 symmetry adapted cartesian basis functions of A   symmetry.
 There are   160 symmetry adapted basis functions of A   symmetry.
   160 basis functions,   300 primitive gaussians,   160 cartesian basis functions
    37 alpha electrons       37 beta electrons
       nuclear repulsion energy       541.9040600036 Hartrees.
 NAtoms=   15 NActive=   15 NUniq=   15 SFac= 1.00D+00 NAtFMM=   60 NAOKFM=F Big=F
 Integral buffers will be    131072 words long.
 Raffenetti 2 integral format.
 Two-electron integral symmetry is turned on.
 Nuclear repulsion after empirical dispersion term =      541.8792512922 Hartrees.
 One-electron integrals computed using PRISM.
 NBasis=   160 RedAO= T EigKep=  2.32D-03  NBF=   160
 NBsUse=   160 1.00D-06 EigRej= -1.00D+00 NBFU=   160
 Initial guess from the checkpoint file:  "JID_623.chk"
 B after Tr=    -0.000000   -0.000000    0.000000
         Rot=    0.999854   -0.011335    0.001172    0.012749 Ang=  -1.96 deg.
 ExpMin= 1.61D-01 ExpMax= 4.17D+03 ExpMxC= 6.27D+02 IAcc=2 IRadAn=         4 AccDes= 0.00D+00
 Harris functional with IExCor=  402 and IRadAn=       4 diagonalized for initial guess.
 HarFok:  IExCor=  402 AccDes= 0.00D+00 IRadAn=         4 IDoV= 1 UseB2=F ITyADJ=14
 ICtDFT=  3500011 ScaDFX=  1.000000  1.000000  1.000000  1.000000
 FoFCou: FMM=F IPFlag=           0 FMFlag=      100000 FMFlg1=           0
         NFxFlg=           0 DoJE=T BraDBF=F KetDBF=T FulRan=T
         wScrn=  0.000000 ICntrl=       500 IOpCl=  0 I1Cent=   200000004 NGrid=           0
         NMat0=    1 NMatS0=      1 NMatT0=    0 NMatD0=    1 NMtDS0=    0 NMtDT0=    0
 Petite list used in FoFCou.
 Keep R1 ints in memory in canonical form, NReq=86904867.
 Requested convergence on RMS density matrix=1.00D-08 within  32 cycles.
 Requested convergence on MAX density matrix=1.00D-06.
 Requested convergence on             energy=1.00D-06.
 No special actions if energy rises.
 Integral accuracy reduced to 1.0D-05 until final iterations.
 Initial convergence to 1.0D-05 achieved.  Increase integral accuracy.
 SCF Done:  E(RB3LYP) =  -533.723769091     A.U. after   13 cycles
            NFock= 13  Conv=0.75D-08     -V/T= 2.0090
 QCSCF skips out because SCF is already converged.
 Calling FoFJK, ICntrl=      2127 FMM=F ISym2X=0 I1Cent= 0 IOpClX= 0 NMat=1 NMatS=1 NMatT=0.
 ***** Axes restored to original set *****
 -------------------------------------------------------------------
 Center     Atomic                   Forces (Hartrees/Bohr)
 Number     Number              X              Y              Z
 -------------------------------------------------------------------
      1        6          -0.003318475    0.000663319    0.009066981
      2        7           0.002722058    0.000319317   -0.006137154
      3        7           0.005424242   -0.003022498   -0.000737571
      4        7           0.003030153    0.001235290    0.001183850
      5        7           0.005411882   -0.000953235    0.000750206
      6        7          -0.009585396   -0.000174406   -0.015000108
      7        7          -0.005258864   -0.000735978   -0.001478292
      8        7           0.002778022    0.003817636    0.006603353
      9        7           0.007060343   -0.003683943    0.003289550
     10        7          -0.005216554    0.000229409    0.002330369
     11        1          -0.000702898    0.000719472    0.000143734
     12        1           0.000726389    0.000097490   -0.002117868
     13        1          -0.000467920    0.000463952    0.000893092
     14        1          -0.000679812   -0.000316884    0.000132773
     15        1          -0.001923169    0.001341057    0.001077085
 -------------------------------------------------------------------
 Cartesian Forces:  Max     0.015000108 RMS     0.004097323

 GradGradGradGradGradGradGradGradGradGradGradGradGradGradGradGradGradGrad
 Berny optimization.
 Using GEDIIS/GDIIS optimizer.
 FormGI is forming the generalized inverse of G from B-inverse, IUseBI=4.
 Internal  Forces:  Max     0.018019550 RMS     0.004952033
 Search for a local minimum.
 Step number   3 out of a maximum of   69
 All quantities printed in internal units (Hartrees-Bohrs-Radians)
 Mixed Optimization -- RFO/linear search
 Update second derivatives using D2CorX and points    2    3
 DE= -2.15D-03 DEPred=-4.04D-03 R= 5.34D-01
 TightC=F SS=  1.41D+00  RLast= 3.11D-01 DXNew= 8.4853D-01 9.3441D-01
 Trust test= 5.34D-01 RLast= 3.11D-01 DXMaxT set to 8.49D-01
 ITU=  1  1  0
 Use linear search instead of GDIIS.
     Eigenvalues ---    0.01604   0.01924   0.01981   0.02007   0.02090
     Eigenvalues ---    0.02164   0.02316   0.02393   0.03278   0.03925
     Eigenvalues ---    0.05418   0.05914   0.12508   0.13752   0.15575
     Eigenvalues ---    0.16004   0.16032   0.23431   0.24234   0.24789
     Eigenvalues ---    0.24942   0.24995   0.25558   0.43197   0.43643
     Eigenvalues ---    0.44372   0.44703   0.45313   0.46153   0.46341
     Eigenvalues ---    0.48498   0.52304   0.52953   0.53684   0.54551
     Eigenvalues ---    0.55466   0.57539   0.60882   0.74467
 RFO step:  Lambda=-2.67920547D-03 EMin= 1.60372732D-02
 Quartic linear search produced a step of -0.28562.
 Iteration  1 RMS(Cart)=  0.09904354 RMS(Int)=  0.00217567
 Iteration  2 RMS(Cart)=  0.00320501 RMS(Int)=  0.00032349
 Iteration  3 RMS(Cart)=  0.00000333 RMS(Int)=  0.00032348
 Iteration  4 RMS(Cart)=  0.00000000 RMS(Int)=  0.00032348
 Variable       Old X    -DE/DX   Delta X   Delta X   Delta X     New X
                                 (Linear)    (Quad)   (Total)
    R1        2.41620  -0.01218   0.00391  -0.01877  -0.01486   2.40134
    R2        2.65595  -0.00304  -0.00125  -0.00930  -0.01055   2.64540
    R3        2.70846  -0.00642  -0.01159   0.00795  -0.00364   2.70482
    R4        2.67352  -0.00140  -0.01063   0.01276   0.00213   2.67565
    R5        1.91769   0.00067   0.00135  -0.00072   0.00063   1.91832
    R6        1.92979   0.00042   0.00086  -0.00085   0.00001   1.92980
    R7        1.92451  -0.00057  -0.00034  -0.00088  -0.00122   1.92329
    R8        1.91665   0.00073   0.00058   0.00044   0.00102   1.91766
    R9        2.62561  -0.00932  -0.00029  -0.01868  -0.01897   2.60664
   R10        1.92723  -0.00240  -0.00109  -0.00300  -0.00409   1.92314
   R11        2.51257   0.00100   0.00355  -0.00437  -0.00065   2.51192
   R12        2.50995   0.00258   0.00385  -0.00323   0.00071   2.51066
   R13        2.43811   0.00712   0.00683  -0.00236   0.00450   2.44261
   R14        2.55828   0.00377   0.00120   0.00652   0.00756   2.56583
   R15        2.44112   0.00589   0.00675  -0.00381   0.00280   2.44393
    A1        2.09559   0.00723  -0.00012   0.01380   0.01368   2.10926
    A2        2.28030  -0.01137  -0.01394   0.01135  -0.00259   2.27771
    A3        1.90724   0.00414   0.01405  -0.02522  -0.01117   1.89607
    A4        2.10106  -0.01802  -0.01801  -0.00798  -0.02599   2.07508
    A5        1.83473   0.00070   0.01290  -0.02417  -0.01128   1.82345
    A6        1.94397  -0.00195   0.00358  -0.02372  -0.02012   1.92384
    A7        1.86486   0.00079  -0.00229   0.00495   0.00265   1.86751
    A8        1.98015  -0.00116   0.00231  -0.01279  -0.01051   1.96964
    A9        1.90390   0.00006   0.00339  -0.00968  -0.00632   1.89758
   A10        1.91963   0.00016  -0.00287   0.00507   0.00215   1.92178
   A11        2.10656  -0.01796  -0.01113  -0.03496  -0.04604   2.06052
   A12        1.92564   0.00486  -0.00326   0.02188   0.01857   1.94421
   A13        1.87582   0.00733   0.00775   0.00210   0.01000   1.88582
   A14        2.14127   0.00064   0.00072  -0.00023  -0.00093   2.14034
   A15        2.15979   0.00323  -0.00513   0.01910   0.01257   2.17236
   A16        1.96849  -0.00334  -0.00537   0.00741   0.00087   1.96936
   A17        1.81706   0.00352   0.00352  -0.00163   0.00208   1.81914
   A18        1.91090  -0.00172  -0.00072  -0.00147  -0.00244   1.90846
   A19        1.90963  -0.00253  -0.00244   0.00116  -0.00173   1.90790
   A20        1.81730   0.00417   0.00470  -0.00265   0.00190   1.81920
    D1        3.01080  -0.00159   0.00776  -0.02670  -0.01891   2.99189
    D2       -0.14352  -0.00172   0.00747  -0.03396  -0.02652  -0.17004
    D3        2.20214  -0.00079   0.00572  -0.03025  -0.02452   2.17762
    D4        0.05571  -0.00025   0.00526  -0.02075  -0.01552   0.04019
    D5       -0.92923  -0.00057   0.00614  -0.02460  -0.01843  -0.94766
    D6       -3.07566  -0.00003   0.00568  -0.01509  -0.00942  -3.08508
    D7        0.46155  -0.00099  -0.00597  -0.01137  -0.01725   0.44430
    D8        2.66642  -0.00143  -0.00762  -0.01754  -0.02530   2.64112
    D9       -2.69171  -0.00108  -0.00631  -0.01783  -0.02401  -2.71572
   D10       -0.48683  -0.00152  -0.00796  -0.02401  -0.03206  -0.51890
   D11       -3.09088  -0.00148   0.00693  -0.06335  -0.05639   3.13591
   D12        1.17897  -0.00186   0.00022  -0.04412  -0.04393   1.13504
   D13       -2.06738   0.00152  -0.00955   0.03671   0.02719  -2.04019
   D14       -1.83386   0.00156  -0.02549   0.10578   0.08056  -1.75330
   D15        1.49732  -0.00179   0.02171  -0.07595  -0.05431   1.44301
   D16        2.22179   0.00264  -0.01892   0.10201   0.08316   2.30495
   D17       -0.73022  -0.00071   0.02828  -0.07973  -0.05171  -0.78193
   D18       -3.02203  -0.00197   0.03818  -0.11807  -0.07953  -3.10156
   D19       -0.05123   0.00165  -0.00446   0.04694   0.04232  -0.00891
   D20        3.01555   0.00093  -0.04252   0.10477   0.06231   3.07785
   D21        0.04685  -0.00244  -0.00060  -0.06006  -0.06059  -0.01374
   D22        0.03434  -0.00011   0.00780  -0.01484  -0.00695   0.02739
   D23       -0.00735  -0.00134  -0.00849  -0.02202  -0.03060  -0.03795
   D24       -0.02323   0.00219   0.00528   0.04824   0.05344   0.03021
         Item               Value     Threshold  Converged?
 Maximum Force            0.018020     0.000450     NO 
 RMS     Force            0.004952     0.000300     NO 
 Maximum Displacement     0.348889     0.001800     NO 
 RMS     Displacement     0.100203     0.001200     NO 
 Predicted change in Energy=-1.994569D-03
 GradGradGradGradGradGradGradGradGradGradGradGradGradGradGradGradGradGrad

                          Input orientation:                          
 ---------------------------------------------------------------------
 Center     Atomic      Atomic             Coordinates (Angstroms)
 Number     Number       Type             X           Y           Z
 ---------------------------------------------------------------------
      1          6           0        0.989257   -0.034468    0.013269
      2          7           0        0.191838    0.138937    0.987343
      3          7           0        0.716617    0.551608    2.235965
      4          7           0        0.546244   -0.609990   -1.183474
      5          7           0        2.376497    0.291145   -0.121802
      6          7           0        3.137024    0.379096    1.025605
      7          7           0        3.452098    1.540881    1.589425
      8          7           0        4.198708    1.214902    2.592950
      9          7           0        4.361380   -0.132942    2.613473
     10          7           0        3.679671   -0.660801    1.649530
     11          1           0       -0.095509    0.626006    2.840452
     12          1           0        1.117843    1.487485    2.158419
     13          1           0        0.735082   -0.027016   -1.996074
     14          1           0       -0.449250   -0.792060   -1.108443
     15          1           0        2.846140   -0.343973   -0.763469
 ---------------------------------------------------------------------
                    Distance matrix (angstroms):
                    1          2          3          4          5
     1  C    0.000000
     2  N    1.270735   0.000000
     3  N    2.314778   1.415891   0.000000
     4  N    1.399886   2.323562   3.615370   0.000000
     5  N    1.431329   2.454813   2.895187   2.299787   0.000000
     6  N    2.410137   2.955209   2.711661   3.545484   1.379376
     7  N    3.321382   3.599617   2.979854   4.556227   2.376353
     8  N    4.303052   4.448671   3.562633   5.561663   3.397595
     9  N    4.259339   4.483669   3.727655   5.403669   3.406073
    10  N    3.210603   3.639100   3.254770   4.224554   2.396263
    11  H    3.099340   1.937477   1.015129   4.258111   3.872711
    12  H    2.633352   2.011836   1.021205   3.986775   2.866156
    13  H    2.025369   3.037010   4.271452   1.017761   2.511646
    14  H    1.975218   2.381190   3.788107   1.014784   3.183024
    15  H    2.036451   3.216188   3.785967   2.353017   1.017682
                    6          7          8          9         10
     6  N    0.000000
     7  N    1.329252   0.000000
     8  N    2.069376   1.292576   0.000000
     9  N    2.069433   2.162672   1.357781   0.000000
    10  N    1.328583   2.214228   2.162800   1.293270   0.000000
    11  H    3.715360   3.871379   4.341469   4.526740   4.162469
    12  H    2.566883   2.403196   3.123275   3.654229   3.381873
    13  H    3.881339   4.764061   5.882023   5.865933   4.728923
    14  H    4.334412   5.285983   6.271500   6.117944   4.967054
    15  H    1.951468   3.075057   3.940188   3.707320   2.572493
                   11         12         13         14         15
    11  H    0.000000
    12  H    1.636929   0.000000
    13  H    4.950586   4.438472   0.000000
    14  H    4.210679   4.280712   1.666080   0.000000
    15  H    4.752095   3.857290   2.465023   3.343558   0.000000
 Stoichiometry    CH5N9
 Framework group  C1[X(CH5N9)]
 Deg. of freedom    39
 Full point group                 C1      NOp   1
 Largest Abelian subgroup         C1      NOp   1
 Largest concise Abelian subgroup C1      NOp   1
                         Standard orientation:                         
 ---------------------------------------------------------------------
 Center     Atomic      Atomic             Coordinates (Angstroms)
 Number     Number       Type             X           Y           Z
 ---------------------------------------------------------------------
      1          6           0        1.704823   -0.128940    0.025404
      2          7           0        1.758362    1.124367   -0.177380
      3          7           0        0.553267    1.867571   -0.189212
      4          7           0        2.841981   -0.930491   -0.129729
      5          7           0        0.613850   -0.957941    0.439217
      6          7           0       -0.667963   -0.527167    0.167064
      7          7           0       -1.438829    0.052263    1.081906
      8          7           0       -2.557545    0.260677    0.468888
      9          7           0       -2.473243   -0.221852   -0.797456
     10          7           0       -1.285714   -0.693401   -0.997360
     11          1           0        0.846742    2.824146   -0.360457
     12          1           0        0.118230    1.849551    0.734518
     13          1           0        3.057367   -1.476174    0.701942
     14          1           0        3.628726   -0.336594   -0.370780
     15          1           0        0.710833   -1.905467    0.080796
 ---------------------------------------------------------------------
 Rotational constants (GHZ):           2.9850358           0.9950947           0.8692391
 Standard basis: 6-31G(d) (6D, 7F)
 There are   160 symmetry adapted cartesian basis functions of A   symmetry.
 There are   160 symmetry adapted basis functions of A   symmetry.
   160 basis functions,   300 primitive gaussians,   160 cartesian basis functions
    37 alpha electrons       37 beta electrons
       nuclear repulsion energy       547.9149631932 Hartrees.
 NAtoms=   15 NActive=   15 NUniq=   15 SFac= 1.00D+00 NAtFMM=   60 NAOKFM=F Big=F
 Integral buffers will be    131072 words long.
 Raffenetti 2 integral format.
 Two-electron integral symmetry is turned on.
 Nuclear repulsion after empirical dispersion term =      547.8893638704 Hartrees.
 One-electron integrals computed using PRISM.
 NBasis=   160 RedAO= T EigKep=  2.30D-03  NBF=   160
 NBsUse=   160 1.00D-06 EigRej= -1.00D+00 NBFU=   160
 Initial guess from the checkpoint file:  "JID_623.chk"
 B after Tr=    -0.000000   -0.000000   -0.000000
         Rot=    0.999759   -0.006917   -0.002124   -0.020744 Ang=  -2.52 deg.
 ExpMin= 1.61D-01 ExpMax= 4.17D+03 ExpMxC= 6.27D+02 IAcc=2 IRadAn=         4 AccDes= 0.00D+00
 Harris functional with IExCor=  402 and IRadAn=       4 diagonalized for initial guess.
 HarFok:  IExCor=  402 AccDes= 0.00D+00 IRadAn=         4 IDoV= 1 UseB2=F ITyADJ=14
 ICtDFT=  3500011 ScaDFX=  1.000000  1.000000  1.000000  1.000000
 FoFCou: FMM=F IPFlag=           0 FMFlag=      100000 FMFlg1=           0
         NFxFlg=           0 DoJE=T BraDBF=F KetDBF=T FulRan=T
         wScrn=  0.000000 ICntrl=       500 IOpCl=  0 I1Cent=   200000004 NGrid=           0
         NMat0=    1 NMatS0=      1 NMatT0=    0 NMatD0=    1 NMtDS0=    0 NMtDT0=    0
 Petite list used in FoFCou.
 Keep R1 ints in memory in canonical form, NReq=86904867.
 Requested convergence on RMS density matrix=1.00D-08 within  32 cycles.
 Requested convergence on MAX density matrix=1.00D-06.
 Requested convergence on             energy=1.00D-06.
 No special actions if energy rises.
 Integral accuracy reduced to 1.0D-05 until final iterations.
 Initial convergence to 1.0D-05 achieved.  Increase integral accuracy.
 SCF Done:  E(RB3LYP) =  -533.725536960     A.U. after   13 cycles
            NFock= 13  Conv=0.63D-08     -V/T= 2.0089
 QCSCF skips out because SCF is already converged.
 Calling FoFJK, ICntrl=      2127 FMM=F ISym2X=0 I1Cent= 0 IOpClX= 0 NMat=1 NMatS=1 NMatT=0.
 ***** Axes restored to original set *****
 -------------------------------------------------------------------
 Center     Atomic                   Forces (Hartrees/Bohr)
 Number     Number              X              Y              Z
 -------------------------------------------------------------------
      1        6           0.001453080   -0.000975018   -0.004007772
      2        7           0.001019740   -0.000917619    0.000974260
      3        7          -0.000781849   -0.000026339    0.000424785
      4        7          -0.001490401   -0.000054585   -0.000883672
      5        7           0.002470536    0.000057339    0.003891259
      6        7          -0.004016757    0.001164218   -0.005724035
      7        7           0.000300195   -0.001866904   -0.001632500
      8        7           0.002863177    0.001621938    0.002923705
      9        7          -0.000152451   -0.001672144    0.005372611
     10        7           0.002227777    0.001851205   -0.002111806
     11        1           0.000171038    0.000947065    0.001511960
     12        1          -0.000698827    0.000709308    0.000967295
     13        1          -0.000806594    0.000157712   -0.000474801
     14        1          -0.000648437   -0.000619085   -0.001163880
     15        1          -0.001910227   -0.000377092   -0.000067407
 -------------------------------------------------------------------
 Cartesian Forces:  Max     0.005724035 RMS     0.001996671

 GradGradGradGradGradGradGradGradGradGradGradGradGradGradGradGradGradGrad
 Berny optimization.
 Using GEDIIS/GDIIS optimizer.
 FormGI is forming the generalized inverse of G from B-inverse, IUseBI=4.
 Internal  Forces:  Max     0.004618426 RMS     0.001740537
 Search for a local minimum.
 Step number   4 out of a maximum of   69
 All quantities printed in internal units (Hartrees-Bohrs-Radians)
 Mixed Optimization -- RFO/linear search
 Update second derivatives using D2CorX and points    2    3    4
 DE= -1.77D-03 DEPred=-1.99D-03 R= 8.86D-01
 TightC=F SS=  1.41D+00  RLast= 2.33D-01 DXNew= 1.4270D+00 7.0040D-01
 Trust test= 8.86D-01 RLast= 2.33D-01 DXMaxT set to 8.49D-01
 ITU=  1  1  1  0
 Use linear search instead of GDIIS.
     Eigenvalues ---    0.01269   0.01924   0.01980   0.01999   0.02158
     Eigenvalues ---    0.02261   0.02395   0.02535   0.03675   0.04190
     Eigenvalues ---    0.05573   0.06037   0.12554   0.13797   0.15872
     Eigenvalues ---    0.16015   0.16312   0.22221   0.24230   0.24982
     Eigenvalues ---    0.24997   0.25016   0.30470   0.43147   0.43644
     Eigenvalues ---    0.44096   0.44617   0.45324   0.46046   0.46354
     Eigenvalues ---    0.48747   0.52320   0.52960   0.53736   0.54230
     Eigenvalues ---    0.54847   0.57538   0.64046   0.74212
 RFO step:  Lambda=-1.08902688D-03 EMin= 1.26903034D-02
 Quartic linear search produced a step of -0.08170.
 Iteration  1 RMS(Cart)=  0.05344528 RMS(Int)=  0.00192492
 Iteration  2 RMS(Cart)=  0.00220009 RMS(Int)=  0.00020969
 Iteration  3 RMS(Cart)=  0.00000329 RMS(Int)=  0.00020967
 Iteration  4 RMS(Cart)=  0.00000000 RMS(Int)=  0.00020967
 Variable       Old X    -DE/DX   Delta X   Delta X   Delta X     New X
                                 (Linear)    (Quad)   (Total)
    R1        2.40134   0.00325   0.00121  -0.00391  -0.00270   2.39864
    R2        2.64540   0.00330   0.00086   0.00261   0.00347   2.64887
    R3        2.70482   0.00165   0.00030   0.00613   0.00643   2.71125
    R4        2.67565   0.00255  -0.00017   0.00971   0.00953   2.68518
    R5        1.91832   0.00083  -0.00005   0.00139   0.00134   1.91966
    R6        1.92980   0.00030  -0.00000   0.00031   0.00031   1.93011
    R7        1.92329   0.00032   0.00010   0.00031   0.00041   1.92370
    R8        1.91766   0.00066  -0.00008   0.00152   0.00144   1.91910
    R9        2.60664  -0.00023   0.00155  -0.00762  -0.00607   2.60058
   R10        1.92314  -0.00060   0.00033  -0.00239  -0.00206   1.92108
   R11        2.51192   0.00046   0.00005  -0.00110  -0.00089   2.51103
   R12        2.51066   0.00138  -0.00006   0.00096   0.00099   2.51165
   R13        2.44261   0.00402  -0.00037   0.00524   0.00488   2.44749
   R14        2.56583   0.00087  -0.00062   0.00410   0.00334   2.56917
   R15        2.44393   0.00335  -0.00023   0.00360   0.00327   2.44720
    A1        2.10926  -0.00090  -0.00112   0.00399   0.00287   2.11213
    A2        2.27771  -0.00142   0.00021  -0.00397  -0.00375   2.27395
    A3        1.89607   0.00232   0.00091  -0.00004   0.00088   1.89695
    A4        2.07508   0.00462   0.00212   0.00981   0.01194   2.08701
    A5        1.82345   0.00203   0.00092   0.00232   0.00324   1.82669
    A6        1.92384   0.00027   0.00164  -0.00619  -0.00454   1.91930
    A7        1.86751  -0.00158  -0.00022  -0.00736  -0.00756   1.85995
    A8        1.96964   0.00041   0.00086  -0.00246  -0.00159   1.96804
    A9        1.89758   0.00190   0.00052   0.00743   0.00795   1.90554
   A10        1.92178  -0.00110  -0.00018  -0.00340  -0.00357   1.91821
   A11        2.06052   0.00160   0.00376  -0.01064  -0.00688   2.05364
   A12        1.94421  -0.00238  -0.00152  -0.00605  -0.00755   1.93666
   A13        1.88582   0.00122  -0.00082   0.01197   0.01114   1.89695
   A14        2.14034   0.00186   0.00008   0.00473   0.00401   2.14435
   A15        2.17236   0.00176  -0.00103   0.01232   0.01048   2.18284
   A16        1.96936  -0.00360  -0.00007  -0.01307  -0.01372   1.95563
   A17        1.81914   0.00309  -0.00017   0.01178   0.01173   1.83087
   A18        1.90846  -0.00121   0.00020  -0.00456  -0.00462   1.90384
   A19        1.90790  -0.00171   0.00014  -0.00558  -0.00585   1.90205
   A20        1.81920   0.00348  -0.00016   0.01298   0.01270   1.83190
    D1        2.99189   0.00100   0.00154   0.01629   0.01783   3.00973
    D2       -0.17004   0.00109   0.00217   0.01525   0.01741  -0.15262
    D3        2.17762  -0.00020   0.00200  -0.02406  -0.02205   2.15556
    D4        0.04019  -0.00042   0.00127  -0.02339  -0.02212   0.01807
    D5       -0.94766  -0.00024   0.00151  -0.02316  -0.02166  -0.96932
[...]
     9    C    1  px     Ryd( 3p)     0.00022       0.76102
    10    C    1  py     Val( 2p)     0.44410       0.08670
    11    C    1  py     Ryd( 4p)     0.00496       1.25995
    12    C    1  py     Ryd( 5p)     0.00082       1.52591
    13    C    1  py     Ryd( 3p)     0.00013       1.00296
    14    C    1  pz     Val( 2p)     0.45632      -0.01006
    15    C    1  pz     Ryd( 3p)     0.00152       0.85792
    16    C    1  pz     Ryd( 5p)     0.00038       1.25475
    17    C    1  pz     Ryd( 4p)     0.00010       1.15165
    18    C    1  dxy    Ryd( 3d)     0.00138       2.71438
    19    C    1  dxz    Ryd( 3d)     0.00081       1.73576
    20    C    1  dyz    Ryd( 3d)     0.00180       1.85274
    21    C    1  dx2y2  Ryd( 3d)     0.00063       2.67561
    22    C    1  dz2    Ryd( 3d)     0.00029       2.18849
 
    23    N    2  S      Cor( 1S)     0.99959     -14.03083
    24    N    2  S      Val( 2S)     0.69880      -0.40165
    25    N    2  S      Ryd( 4S)     0.00271       2.38557
    26    N    2  S      Ryd( 3S)     0.00027       1.70303
    27    N    2  S      Ryd( 5S)     0.00000      35.46478
    28    N    2  px     Val( 2p)     0.68129      -0.06145
    29    N    2  px     Ryd( 3p)     0.00238       0.87239
    30    N    2  px     Ryd( 4p)     0.00049       0.95606
    31    N    2  px     Ryd( 5p)     0.00006       4.22181
    32    N    2  py     Val( 2p)     0.65284      -0.07670
    33    N    2  py     Ryd( 4p)     0.00186       0.92885
    34    N    2  py     Ryd( 3p)     0.00107       0.70320
    35    N    2  py     Ryd( 5p)     0.00005       4.43922
    36    N    2  pz     Val( 2p)     0.66731      -0.07265
    37    N    2  pz     Ryd( 3p)     0.00091       0.72661
    38    N    2  pz     Ryd( 4p)     0.00017       0.94186
    39    N    2  pz     Ryd( 5p)     0.00001       3.99792
    40    N    2  dxy    Ryd( 3d)     0.00065       2.78596
    41    N    2  dxz    Ryd( 3d)     0.00047       2.26140
    42    N    2  dyz    Ryd( 3d)     0.00080       2.44960
    43    N    2  dx2y2  Ryd( 3d)     0.00098       3.09427
    44    N    2  dz2    Ryd( 3d)     0.00046       2.72475
 
    45    N    3  S      Cor( 1S)     0.99976     -14.05451
    46    N    3  S      Val( 2S)     0.72556      -0.47580
    47    N    3  S      Ryd( 4S)     0.00065       1.30229
    48    N    3  S      Ryd( 3S)     0.00005       0.84154
    49    N    3  S      Ryd( 5S)     0.00000      35.43801
    50    N    3  px     Val( 2p)     0.64064      -0.07501
    51    N    3  px     Ryd( 4p)     0.00279       0.78295
    52    N    3  px     Ryd( 3p)     0.00020       0.77379
    53    N    3  px     Ryd( 5p)     0.00002       4.24151
    54    N    3  py     Val( 2p)     0.66653      -0.07972
    55    N    3  py     Ryd( 4p)     0.00147       0.91503
    56    N    3  py     Ryd( 3p)     0.00035       0.81261
    57    N    3  py     Ryd( 5p)     0.00001       4.33937
    58    N    3  pz     Val( 2p)     0.78192      -0.09999
    59    N    3  pz     Ryd( 4p)     0.00278       0.71592
    60    N    3  pz     Ryd( 3p)     0.00027       0.66660
    61    N    3  pz     Ryd( 5p)     0.00001       4.15185
    62    N    3  dxy    Ryd( 3d)     0.00055       2.73791
    63    N    3  dxz    Ryd( 3d)     0.00067       2.59863
    64    N    3  dyz    Ryd( 3d)     0.00033       2.43344
    65    N    3  dx2y2  Ryd( 3d)     0.00072       2.73723
    66    N    3  dz2    Ryd( 3d)     0.00082       2.82368
 
    67    N    4  S      Cor( 1S)     0.99973     -14.03711
    68    N    4  S      Val( 2S)     0.69409      -0.47828
    69    N    4  S      Ryd( 3S)     0.00093       0.98519
    70    N    4  S      Ryd( 4S)     0.00037       1.65002
    71    N    4  S      Ryd( 5S)     0.00000      34.98609
    72    N    4  px     Val( 2p)     0.64326      -0.10170
    73    N    4  px     Ryd( 3p)     0.00142       0.72262
    74    N    4  px     Ryd( 4p)     0.00049       0.93441
    75    N    4  px     Ryd( 5p)     0.00002       4.34457
    76    N    4  py     Val( 2p)     0.75181      -0.11443
    77    N    4  py     Ryd( 3p)     0.00257       0.61017
    78    N    4  py     Ryd( 4p)     0.00059       0.88631
    79    N    4  py     Ryd( 5p)     0.00001       4.25171
    80    N    4  pz     Val( 2p)     0.80950      -0.12324
    81    N    4  pz     Ryd( 3p)     0.00216       0.50035
    82    N    4  pz     Ryd( 4p)     0.00026       0.88765
    83    N    4  pz     Ryd( 5p)     0.00001       4.14575
    84    N    4  dxy    Ryd( 3d)     0.00065       3.08083
    85    N    4  dxz    Ryd( 3d)     0.00016       2.44964
    86    N    4  dyz    Ryd( 3d)     0.00053       2.67279
    87    N    4  dx2y2  Ryd( 3d)     0.00013       2.64683
    88    N    4  dz2    Ryd( 3d)     0.00058       2.78455
 
    89    N    5  S      Cor( 1S)     0.99967     -14.10500
    90    N    5  S      Val( 2S)     0.64681      -0.44645
    91    N    5  S      Ryd( 4S)     0.00154       1.59030
    92    N    5  S      Ryd( 3S)     0.00107       1.48899
    93    N    5  S      Ryd( 5S)     0.00001      33.75974
    94    N    5  px     Val( 2p)     0.53169      -0.09035
    95    N    5  px     Ryd( 3p)     0.00231       1.00845
    96    N    5  px     Ryd( 4p)     0.00148       1.10335
    97    N    5  px     Ryd( 5p)     0.00007       3.92607
    98    N    5  py     Val( 2p)     0.67503      -0.13241
    99    N    5  py     Ryd( 3p)     0.00169       0.69457
   100    N    5  py     Ryd( 4p)     0.00071       0.93609
   101    N    5  py     Ryd( 5p)     0.00004       4.12382
   102    N    5  pz     Val( 2p)     0.86716      -0.15519
   103    N    5  pz     Ryd( 3p)     0.00344       0.61978
   104    N    5  pz     Ryd( 4p)     0.00107       0.93415
   105    N    5  pz     Ryd( 5p)     0.00002       3.89653
   106    N    5  dxy    Ryd( 3d)     0.00061       2.95907
   107    N    5  dxz    Ryd( 3d)     0.00027       2.51182
   108    N    5  dyz    Ryd( 3d)     0.00067       2.65906
   109    N    5  dx2y2  Ryd( 3d)     0.00043       2.87990
   110    N    5  dz2    Ryd( 3d)     0.00047       2.67991
 
   111    N    6  S      Cor( 1S)     0.99971     -14.16252
   112    N    6  S      Val( 2S)     0.55474      -0.37446
   113    N    6  S      Ryd( 3S)     0.00342       2.11988
   114    N    6  S      Ryd( 4S)     0.00028       3.36308
   115    N    6  S      Ryd( 5S)     0.00001      30.88084
   116    N    6  px     Val( 2p)     0.56522      -0.12627
   117    N    6  px     Ryd( 3p)     0.00281       1.44478
   118    N    6  px     Ryd( 5p)     0.00145       2.08151
   119    N    6  px     Ryd( 4p)     0.00012       1.66322
   120    N    6  py     Val( 2p)     0.69233      -0.14579
   121    N    6  py     Ryd( 3p)     0.00297       0.91733
   122    N    6  py     Ryd( 4p)     0.00082       1.36548
   123    N    6  py     Ryd( 5p)     0.00011       2.84641
   124    N    6  pz     Val( 2p)     0.56929      -0.12393
   125    N    6  pz     Ryd( 3p)     0.00427       0.99910
   126    N    6  pz     Ryd( 5p)     0.00107       1.51561
   127    N    6  pz     Ryd( 4p)     0.00010       1.30644
   128    N    6  dxy    Ryd( 3d)     0.00062       2.56421
   129    N    6  dxz    Ryd( 3d)     0.00111       2.98257
   130    N    6  dyz    Ryd( 3d)     0.00073       2.45403
   131    N    6  dx2y2  Ryd( 3d)     0.00064       2.64729
   132    N    6  dz2    Ryd( 3d)     0.00093       2.77273
 
   133    N    7  S      Cor( 1S)     0.99976     -14.06782
   134    N    7  S      Val( 2S)     0.71997      -0.41626
   135    N    7  S      Ryd( 3S)     0.00203       1.78905
   136    N    7  S      Ryd( 4S)     0.00075       2.61508
   137    N    7  S      Ryd( 5S)     0.00000      35.16415
   138    N    7  px     Val( 2p)     0.52091      -0.02613
   139    N    7  px     Ryd( 4p)     0.00595       0.84311
   140    N    7  px     Ryd( 3p)     0.00104       0.74749
   141    N    7  px     Ryd( 5p)     0.00002       4.33363
   142    N    7  py     Val( 2p)     0.53933      -0.05283
   143    N    7  py     Ryd( 3p)     0.00147       0.69530
   144    N    7  py     Ryd( 4p)     0.00025       0.73411
   145    N    7  py     Ryd( 5p)     0.00001       4.02002
   146    N    7  pz     Val( 2p)     0.69944      -0.07275
   147    N    7  pz     Ryd( 3p)     0.00305       0.66796
   148    N    7  pz     Ryd( 4p)     0.00043       0.73780
   149    N    7  pz     Ryd( 5p)     0.00006       4.17794
   150    N    7  dxy    Ryd( 3d)     0.00058       2.54126
   151    N    7  dxz    Ryd( 3d)     0.00119       2.98857
   152    N    7  dyz    Ryd( 3d)     0.00118       2.54165
   153    N    7  dx2y2  Ryd( 3d)     0.00048       2.64135
   154    N    7  dz2    Ryd( 3d)     0.00107       2.67037
 
   155    N    8  S      Cor( 1S)     0.99982     -14.07738
   156    N    8  S      Val( 2S)     0.72794      -0.42616
   157    N    8  S      Ryd( 4S)     0.00227       1.43191
   158    N    8  S      Ryd( 3S)     0.00006       0.84444
   159    N    8  S      Ryd( 5S)     0.00000      35.33113
   160    N    8  px     Val( 2p)     0.65145      -0.05565
   161    N    8  px     Ryd( 4p)     0.00390       0.84957
   162    N    8  px     Ryd( 3p)     0.00009       0.82935
   163    N    8  px     Ryd( 5p)     0.00003       4.02699
   164    N    8  py     Val( 2p)     0.62292      -0.07434
   165    N    8  py     Ryd( 4p)     0.00098       0.81723
   166    N    8  py     Ryd( 3p)     0.00007       0.72832
   167    N    8  py     Ryd( 5p)     0.00001       3.82989
   168    N    8  pz     Val( 2p)     0.55562      -0.02772
   169    N    8  pz     Ryd( 4p)     0.00508       0.89861
   170    N    8  pz     Ryd( 3p)     0.00012       0.86258
   171    N    8  pz     Ryd( 5p)     0.00002       4.17747
   172    N    8  dxy    Ryd( 3d)     0.00107       2.47331
   173    N    8  dxz    Ryd( 3d)     0.00097       2.65952
   174    N    8  dyz    Ryd( 3d)     0.00066       2.47358
   175    N    8  dx2y2  Ryd( 3d)     0.00107       2.60766
   176    N    8  dz2    Ryd( 3d)     0.00085       2.84071
 
   177    N    9  S      Cor( 1S)     0.99982     -14.07722
   178    N    9  S      Val( 2S)     0.72787      -0.42521
   179    N    9  S      Ryd( 4S)     0.00231       1.40435
   180    N    9  S      Ryd( 3S)     0.00006       0.83916
   181    N    9  S      Ryd( 5S)     0.00000      35.32771
   182    N    9  px     Val( 2p)     0.66601      -0.05819
   183    N    9  px     Ryd( 3p)     0.00398       0.85104
   184    N    9  px     Ryd( 4p)     0.00008       0.88107
   185    N    9  px     Ryd( 5p)     0.00003       3.98750
   186    N    9  py     Val( 2p)     0.57309      -0.05866
   187    N    9  py     Ryd( 4p)     0.00132       0.82036
   188    N    9  py     Ryd( 3p)     0.00005       0.76094
   189    N    9  py     Ryd( 5p)     0.00001       3.86288
   190    N    9  pz     Val( 2p)     0.58864      -0.03701
   191    N    9  pz     Ryd( 4p)     0.00473       0.90008
   192    N    9  pz     Ryd( 3p)     0.00014       0.87419
   193    N    9  pz     Ryd( 5p)     0.00002       4.10202
   194    N    9  dxy    Ryd( 3d)     0.00106       2.54548
   195    N    9  dxz    Ryd( 3d)     0.00107       2.59553
   196    N    9  dyz    Ryd( 3d)     0.00066       2.43990
   197    N    9  dx2y2  Ryd( 3d)     0.00095       2.59508
   198    N    9  dz2    Ryd( 3d)     0.00092       2.88269
 
   199    N   10  S      Cor( 1S)     0.99975     -14.06762
   200    N   10  S      Val( 2S)     0.71985      -0.41226
   201    N   10  S      Ryd( 3S)     0.00214       1.71856
   202    N   10  S      Ryd( 4S)     0.00082       2.33361
   203    N   10  S      Ryd( 5S)     0.00000      35.33475
   204    N   10  px     Val( 2p)     0.51258      -0.02006
   205    N   10  px     Ryd( 4p)     0.00575       0.89039
   206    N   10  px     Ryd( 3p)     0.00116       0.76592
   207    N   10  px     Ryd( 5p)     0.00002       4.31758
   208    N   10  py     Val( 2p)     0.56886      -0.06058
   209    N   10  py     Ryd( 3p)     0.00148       0.69728
   210    N   10  py     Ryd( 4p)     0.00020       0.78927
   211    N   10  py     Ryd( 5p)     0.00001       3.99060
   212    N   10  pz     Val( 2p)     0.66829      -0.06018
   213    N   10  pz     Ryd( 3p)     0.00267       0.69483
   214    N   10  pz     Ryd( 4p)     0.00038       0.79102
   215    N   10  pz     Ryd( 5p)     0.00006       4.16461
   216    N   10  dxy    Ryd( 3d)     0.00059       2.59231
   217    N   10  dxz    Ryd( 3d)     0.00120       2.98326
   218    N   10  dyz    Ryd( 3d)     0.00109       2.41819
   219    N   10  dx2y2  Ryd( 3d)     0.00058       2.60839
   220    N   10  dz2    Ryd( 3d)     0.00108       2.79501
 
   221    H   11  S      Val( 1S)     0.32945       0.18737
   222    H   11  S      Ryd( 2S)     0.00026       0.82145
   223    H   11  S      Ryd( 3S)     0.00008       1.13025
   224    H   11  S      Ryd( 4S)     0.00008       1.52829
   225    H   11  px     Ryd( 2p)     0.00025       1.91369
   226    H   11  py     Ryd( 2p)     0.00031       2.67914
   227    H   11  pz     Ryd( 2p)     0.00036       1.85117
 
   228    H   12  S      Val( 1S)     0.32127       0.18813
   229    H   12  S      Ryd( 2S)     0.00098       0.56840
   230    H   12  S      Ryd( 4S)     0.00038       2.22691
   231    H   12  S      Ryd( 3S)     0.00007       0.71464
   232    H   12  px     Ryd( 2p)     0.00021       2.08018
   233    H   12  py     Ryd( 2p)     0.00030       1.89195
   234    H   12  pz     Ryd( 2p)     0.00040       2.52146
 
   235    H   13  S      Val( 1S)     0.29507       0.15738
   236    H   13  S      Ryd( 2S)     0.01091       0.26924
   237    H   13  S      Ryd( 4S)     0.00040       1.53777
   238    H   13  S      Ryd( 3S)     0.00005       1.37122
   239    H   13  px     Ryd( 2p)     0.00016       1.87361
   240    H   13  py     Ryd( 2p)     0.00022       2.23690
   241    H   13  pz     Ryd( 2p)     0.00042       2.34918
 
   242    H   14  S      Val( 1S)     0.30889       0.18477
   243    H   14  S      Ryd( 2S)     0.00194       0.36212
   244    H   14  S      Ryd( 4S)     0.00028       2.03329
   245    H   14  S      Ryd( 3S)     0.00005       0.85915
   246    H   14  px     Ryd( 2p)     0.00019       2.43560
   247    H   14  py     Ryd( 2p)     0.00027       2.18092
   248    H   14  pz     Ryd( 2p)     0.00022       1.81907
 
   249    H   15  S      Val( 1S)     0.28983       0.15900
   250    H   15  S      Ryd( 2S)     0.00393       0.33140
   251    H   15  S      Ryd( 3S)     0.00090       0.85331
   252    H   15  S      Ryd( 4S)     0.00026       2.50450
   253    H   15  px     Ryd( 2p)     0.00011       2.02442
   254    H   15  py     Ryd( 2p)     0.00022       2.54693
   255    H   15  pz     Ryd( 2p)     0.00039       2.07734

 WARNING:  Population inversion found on atom  C    1
           Population inversion found on atom  N    2
           Population inversion found on atom  N    3
           Population inversion found on atom  N    5
           Population inversion found on atom  N    6
           Population inversion found on atom  N    7
           Population inversion found on atom  N    8
           Population inversion found on atom  N    9
           Population inversion found on atom  N   10
           Population inversion found on atom  H   11
           Population inversion found on atom  H   12
           Population inversion found on atom  H   13
           Population inversion found on atom  H   14


 Summary of Natural Population Analysis:                  
                                                          
                                       Natural Population 
                Natural  -----------------------------------------------
    Atom  No    Charge         Core      Valence    Rydberg      Total
 -----------------------------------------------------------------------
      C    1    0.29199      0.99961     1.68965    0.01875     2.70801
      N    2   -0.21319      0.99959     2.70024    0.01335     3.71319
      N    3   -0.32610      0.99976     2.81465    0.01169     3.82610
      N    4   -0.40928      0.99973     2.89866    0.01089     3.90928
      N    5   -0.23624      0.99967     2.72068    0.01590     3.73624
      N    6    0.09724      0.99971     2.38158    0.02146     3.40276
      N    7    0.00104      0.99976     2.47965    0.01956     3.49896
      N    8   -0.07498      0.99982     2.55792    0.01724     3.57498
      N    9   -0.07282      0.99982     2.55561    0.01740     3.57282
      N   10    0.01144      0.99975     2.46956    0.01924     3.48856
      H   11    0.16921      0.00000     0.32945    0.00134     0.33079
      H   12    0.17639      0.00000     0.32127    0.00234     0.32361
      H   13    0.19278      0.00000     0.29507    0.01216     0.30722
      H   14    0.18816      0.00000     0.30889    0.00295     0.31184
      H   15    0.20437      0.00000     0.28983    0.00581     0.29563
 =======================================================================
   * Total *   -0.00000      9.99721    26.81272    0.19007    37.00000

                                 Natural Population      
 --------------------------------------------------------
   Core                       9.99721 ( 99.9721% of  10)
   Valence                   26.81272 ( 99.3064% of  27)
   Natural Minimal Basis     36.80993 ( 99.4863% of  37)
   Natural Rydberg Basis      0.19007 (  0.5137% of  37)
 --------------------------------------------------------

    Atom  No          Natural Electron Configuration
 ----------------------------------------------------------------------------
      C    1      [core]2S( 0.38)2p( 1.31)4p( 0.01)
      N    2      [core]2S( 0.70)2p( 2.00)
      N    3      [core]2S( 0.73)2p( 2.09)4p( 0.01)
      N    4      [core]2S( 0.69)2p( 2.20)3p( 0.01)
      N    5      [core]2S( 0.65)2p( 2.07)3p( 0.01)
      N    6      [core]2S( 0.55)2p( 1.83)3p( 0.01)
      N    7      [core]2S( 0.72)2p( 1.76)3p( 0.01)4p( 0.01)
      N    8      [core]2S( 0.73)2p( 1.83)4p( 0.01)
      N    9      [core]2S( 0.73)2p( 1.83)4p( 0.01)
      N   10      [core]2S( 0.72)2p( 1.75)3p( 0.01)4p( 0.01)
      H   11            1S( 0.33)
      H   12            1S( 0.32)
      H   13            1S( 0.30)2S( 0.01)
      H   14            1S( 0.31)
      H   15            1S( 0.29)


 NBO analysis skipped by request.
 1\1\GINC-NODE317\SP\UB3LYP\6-311++G(d,p)\C1H5N9(1-,2)\VSC10255\08-Dec-
 2020\0\\# B3LYP/6-311++G(d,p) empiricaldispersion=gd3bj scf=xqc pop=np
 a geom=check\\CID_57000060_JID_623_Energie_anion\\-1,2\C,0,0.991893349
 2,-0.0334984804,-0.0104453639\N,0,0.2051739159,0.1944747709,0.96417823
 94\N,0,0.7635910511,0.4619918937,2.2490250403\N,0,0.4995405524,-0.4930
 09022,-1.2367994686\N,0,2.4125093358,0.0936725922,-0.1222454972\N,0,3.
 1610822367,0.3328964358,1.0020561446\N,0,3.3997300601,1.5563276355,1.4
 607160251\N,0,4.1199869093,1.368028631,2.5245526123\N,0,4.3468392677,0
 .0404502272,2.6810709075\N,0,3.7377781724,-0.6108289708,1.7394620029\H
 ,0,-0.0383441453,0.4727900472,2.8746145451\H,0,1.1350283858,1.41436055
 49,2.2589703257\H,0,0.7560370484,0.1024797928,-2.0204180958\H,0,-0.508
 4252473,-0.59802148,-1.1826158315\H,0,2.8212191078,-0.6733046279,-0.64
 89515858\\Version=ES64L-G16RevA.03\State=2-A\HF=-533.8938238\S2=0.7543
 63\S2-1=0.\S2A=0.75001\RMSD=8.063e-09\Dipole=-1.1058154,0.2503884,1.02
 21839\Quadrupole=1.1033528,7.0831066,-8.1864594,-2.2196175,-12.0943263
 ,-1.5454207\PG=C01 [X(C1H5N9)]\\@


 K N O W I N G  IS A BARRIER WHICH PREVENTS LEARNING

                     -- TEACHING OF THE BENE GESSERIT
 Job cpu time:       0 days  0 hours  6 minutes 12.1 seconds.
 Elapsed time:       0 days  0 hours  2 minutes 11.1 seconds.
 File lengths (MBytes):  RWF=    120 Int=      0 D2E=      0 Chk=     12 Scr=      8
 Normal termination of Gaussian 16 at Tue Dec  8 12:39:33 2020.
