 Entering Gaussian System, Link 0=g16
 Initial command:
 /apps/brussel/CO7/ivybridge-ib/software/Gaussian/G16.A.03-intel-2017b/g16/l1.exe "/scratch/brussel/102/vsc10255/3543015[1956].master01.hydra.brussel.vsc/Gau-49876.inp" -scrdir="/scratch/brussel/102/vsc10255/3543015[1956].master01.hydra.brussel.vsc/"
 Entering Link 1 = /apps/brussel/CO7/ivybridge-ib/software/Gaussian/G16.A.03-intel-2017b/g16/l1.exe.bin PID=     49877.
  
 Copyright (c) 1988,1990,1992,1993,1995,1998,2003,2009,2016,
            Gaussian, Inc.  All Rights Reserved.
  
 This is part of the Gaussian(R) 16 program.  It is based on
 the Gaussian(R) 09 system (copyright 2009, Gaussian, Inc.),
 the Gaussian(R) 03 system (copyright 2003, Gaussian, Inc.),
 the Gaussian(R) 98 system (copyright 1998, Gaussian, Inc.),
 the Gaussian(R) 94 system (copyright 1995, Gaussian, Inc.),
 the Gaussian 92(TM) system (copyright 1992, Gaussian, Inc.),
 the Gaussian 90(TM) system (copyright 1990, Gaussian, Inc.),
 the Gaussian 88(TM) system (copyright 1988, Gaussian, Inc.),
 the Gaussian 86(TM) system (copyright 1986, Carnegie Mellon
 University), and the Gaussian 82(TM) system (copyright 1983,
 Carnegie Mellon University). Gaussian is a federally registered
 trademark of Gaussian, Inc.
  
 This software contains proprietary and confidential information,
 including trade secrets, belonging to Gaussian, Inc.
  
 This software is provided under written license and may be
 used, copied, transmitted, or stored only in accord with that
 written license.
  
 The following legend is applicable only to US Government
 contracts under FAR:
  
                    RESTRICTED RIGHTS LEGEND
  
 Use, reproduction and disclosure by the US Government is
 subject to restrictions as set forth in subparagraphs (a)
 and (c) of the Commercial Computer Software - Restricted
 Rights clause in FAR 52.227-19.
  
 Gaussian, Inc.
 340 Quinnipiac St., Bldg. 40, Wallingford CT 06492
  
  
 ---------------------------------------------------------------
 Warning -- This program may not be used in any manner that
 competes with the business of Gaussian, Inc. or will provide
 assistance to any competitor of Gaussian, Inc.  The licensee
 of this program is prohibited from giving any competitor of
 Gaussian, Inc. access to this program.  By using this program,
 the user acknowledges that Gaussian, Inc. is engaged in the
 business of creating and licensing software in the field of
 computational chemistry and represents and warrants to the
 licensee that it is not a competitor of Gaussian, Inc. and that
 it will not use this program in any manner prohibited above.
 ---------------------------------------------------------------
  

 Cite this work as:
 Gaussian 16, Revision A.03,
 M. J. Frisch, G. W. Trucks, H. B. Schlegel, G. E. Scuseria, 
 M. A. Robb, J. R. Cheeseman, G. Scalmani, V. Barone, 
 G. A. Petersson, H. Nakatsuji, X. Li, M. Caricato, A. V. Marenich, 
 J. Bloino, B. G. Janesko, R. Gomperts, B. Mennucci, H. P. Hratchian, 
 J. V. Ortiz, A. F. Izmaylov, J. L. Sonnenberg, D. Williams-Young, 
 F. Ding, F. Lipparini, F. Egidi, J. Goings, B. Peng, A. Petrone, 
 T. Henderson, D. Ranasinghe, V. G. Zakrzewski, J. Gao, N. Rega, 
 G. Zheng, W. Liang, M. Hada, M. Ehara, K. Toyota, R. Fukuda, 
 J. Hasegawa, M. Ishida, T. Nakajima, Y. Honda, O. Kitao, H. Nakai, 
 T. Vreven, K. Throssell, J. A. Montgomery, Jr., J. E. Peralta, 
 F. Ogliaro, M. J. Bearpark, J. J. Heyd, E. N. Brothers, K. N. Kudin, 
 V. N. Staroverov, T. A. Keith, R. Kobayashi, J. Normand, 
 K. Raghavachari, A. P. Rendell, J. C. Burant, S. S. Iyengar, 
 J. Tomasi, M. Cossi, J. M. Millam, M. Klene, C. Adamo, R. Cammi, 
 J. W. Ochterski, R. L. Martin, K. Morokuma, O. Farkas, 
 J. B. Foresman, and D. J. Fox, Gaussian, Inc., Wallingford CT, 2016.
 
 ******************************************
 Gaussian 16:  ES64L-G16RevA.03 25-Dec-2016
                 8-Dec-2020 
 ******************************************
 %chk=JID_1956.chk
 %mem=8GB
 %nprocshared=4
 Will use up to    4 processors via shared memory.
 -----------------------------------------------------------
 # opt freq B3LYP/6-31G(d) empiricaldispersion=gd3bj scf=xqc
 -----------------------------------------------------------
 1/18=20,19=15,26=3,38=1/1,3;
 2/9=110,12=2,17=6,18=5,40=1/2;
 3/5=1,6=6,7=1,11=2,25=1,30=1,71=1,74=-5,124=41/1,2,3;
 4//1;
 5/5=2,8=3,13=1,38=5/2,8;
 6/7=2,8=2,9=2,10=2,28=1/1;
 7//1,2,3,16;
 1/18=20,19=15,26=3/3(2);
 2/9=110/2;
 99//99;
 2/9=110/2;
 3/5=1,6=6,7=1,11=2,25=1,30=1,71=1,74=-5,124=41/1,2,3;
 4/5=5,16=3,69=1/1;
 5/5=2,8=3,13=1,38=5/2,8;
 7//1,2,3,16;
 1/18=20,19=15,26=3/3(-5);
 2/9=110/2;
 6/7=2,8=2,9=2,10=2,19=2,28=1/1;
 99/9=1/99;
 -------------------------------
 CID_148964480_JID_1956_neutraal
 -------------------------------
 Symbolic Z-matrix:
 Charge =  0 Multiplicity = 1
 C                    -2.627     0.296     0.152 
 C                    -2.27896  -0.84083  -0.7951 
 C                    -0.75791  -1.01673  -0.71933 
 C                    -0.22666   0.04617   0.28135 
 C                    -1.47762   0.30662   1.14509 
 C                     0.19389   1.33673  -0.48468 
 C                     1.70737   1.37795  -0.73045 
 C                     2.40162  -0.00214  -0.93791 
 C                     2.30313  -0.11429   0.61088 
 C                     2.49679   1.42768   0.60776 
 C                     0.92729  -0.5048    1.1595 
 H                    -2.67112   1.24478  -0.39499 
 H                    -3.59512   0.14636   0.63899 
 H                    -2.6149   -0.62767  -1.81487 
 H                    -2.77208  -1.76624  -0.47499 
 H                    -0.31868  -0.91602  -1.71702 
 H                    -0.53894  -2.03646  -0.38155 
 H                    -1.61838  -0.50172   1.87453 
 H                    -1.42579   1.24842   1.70079 
 H                    -0.08805   2.23208   0.08375 
 H                    -0.33158   1.40859  -1.44472 
 H                     1.98966   2.15433  -1.44828 
 H                     1.88042  -0.75444  -1.53031 
 H                     3.42972   0.06762  -1.31663 
 H                     3.11483  -0.66948   1.09103 
 H                     3.54032   1.75107   0.50501 
 H                     2.0432    1.98587   1.4313 
 H                     0.84199  -0.11688   2.18302 
 H                     0.86323  -1.59573   1.24575 
 

 GradGradGradGradGradGradGradGradGradGradGradGradGradGradGradGradGradGrad
 Berny optimization.
 Initialization pass.
                           ----------------------------
                           !    Initial Parameters    !
                           ! (Angstroms and Degrees)  !
 --------------------------                            --------------------------
 ! Name  Definition              Value          Derivative Info.                !
 --------------------------------------------------------------------------------
 ! R1    R(1,2)                  1.52           estimate D2E/DX2                !
 ! R2    R(1,5)                  1.519          estimate D2E/DX2                !
 ! R3    R(1,12)                 1.0961         estimate D2E/DX2                !
 ! R4    R(1,13)                 1.094          estimate D2E/DX2                !
 ! R5    R(2,3)                  1.5331         estimate D2E/DX2                !
 ! R6    R(2,14)                 1.0946         estimate D2E/DX2                !
 ! R7    R(2,15)                 1.0964         estimate D2E/DX2                !
 ! R8    R(3,4)                  1.5535         estimate D2E/DX2                !
 ! R9    R(3,16)                 1.0947         estimate D2E/DX2                !
 ! R10   R(3,17)                 1.0963         estimate D2E/DX2                !
 ! R11   R(4,5)                  1.5423         estimate D2E/DX2                !
 ! R12   R(4,6)                  1.5586         estimate D2E/DX2                !
 ! R13   R(4,11)                 1.5512         estimate D2E/DX2                !
 ! R14   R(5,18)                 1.0979         estimate D2E/DX2                !
 ! R15   R(5,19)                 1.0947         estimate D2E/DX2                !
 ! R16   R(6,7)                  1.5339         estimate D2E/DX2                !
 ! R17   R(6,20)                 1.0974         estimate D2E/DX2                !
 ! R18   R(6,21)                 1.0968         estimate D2E/DX2                !
 ! R19   R(7,8)                  1.5587         estimate D2E/DX2                !
 ! R20   R(7,10)                 1.5545         estimate D2E/DX2                !
 ! R21   R(7,22)                 1.0944         estimate D2E/DX2                !
 ! R22   R(8,9)                  1.556          estimate D2E/DX2                !
 ! R23   R(8,23)                 1.0902         estimate D2E/DX2                !
 ! R24   R(8,24)                 1.0979         estimate D2E/DX2                !
 ! R25   R(9,10)                 1.5541         estimate D2E/DX2                !
 ! R26   R(9,11)                 1.5318         estimate D2E/DX2                !
 ! R27   R(9,25)                 1.0944         estimate D2E/DX2                !
 ! R28   R(10,26)                1.0973         estimate D2E/DX2                !
 ! R29   R(10,27)                1.0934         estimate D2E/DX2                !
 ! R30   R(11,28)                1.0979         estimate D2E/DX2                !
 ! R31   R(11,29)                1.0962         estimate D2E/DX2                !
 ! A1    A(2,1,5)              103.8469         estimate D2E/DX2                !
 ! A2    A(2,1,12)             110.2228         estimate D2E/DX2                !
 ! A3    A(2,1,13)             112.1905         estimate D2E/DX2                !
 ! A4    A(5,1,12)             110.5286         estimate D2E/DX2                !
 ! A5    A(5,1,13)             112.3047         estimate D2E/DX2                !
 ! A6    A(12,1,13)            107.7544         estimate D2E/DX2                !
 ! A7    A(1,2,3)              106.391          estimate D2E/DX2                !
 ! A8    A(1,2,14)             111.3802         estimate D2E/DX2                !
 ! A9    A(1,2,15)             110.2654         estimate D2E/DX2                !
 ! A10   A(3,2,14)             111.8933         estimate D2E/DX2                !
 ! A11   A(3,2,15)             109.571          estimate D2E/DX2                !
 ! A12   A(14,2,15)            107.3577         estimate D2E/DX2                !
 ! A13   A(2,3,4)              107.0152         estimate D2E/DX2                !
 ! A14   A(2,3,16)             110.0279         estimate D2E/DX2                !
 ! A15   A(2,3,17)             108.6702         estimate D2E/DX2                !
 ! A16   A(4,3,16)             112.7615         estimate D2E/DX2                !
 ! A17   A(4,3,17)             111.6933         estimate D2E/DX2                !
 ! A18   A(16,3,17)            106.6321         estimate D2E/DX2                !
 ! A19   A(3,4,5)              101.4732         estimate D2E/DX2                !
 ! A20   A(3,4,6)              110.0121         estimate D2E/DX2                !
 ! A21   A(3,4,11)             112.0877         estimate D2E/DX2                !
 ! A22   A(5,4,6)              110.7487         estimate D2E/DX2                !
 ! A23   A(5,4,11)             110.2618         estimate D2E/DX2                !
 ! A24   A(6,4,11)             111.815          estimate D2E/DX2                !
 ! A25   A(1,5,4)              104.265          estimate D2E/DX2                !
 ! A26   A(1,5,18)             109.4033         estimate D2E/DX2                !
 ! A27   A(1,5,19)             111.9437         estimate D2E/DX2                !
 ! A28   A(4,5,18)             110.5941         estimate D2E/DX2                !
 ! A29   A(4,5,19)             113.0258         estimate D2E/DX2                !
 ! A30   A(18,5,19)            107.5913         estimate D2E/DX2                !
 ! A31   A(4,6,7)              111.5458         estimate D2E/DX2                !
 ! A32   A(4,6,20)             110.5899         estimate D2E/DX2                !
 ! A33   A(4,6,21)             110.8048         estimate D2E/DX2                !
 ! A34   A(7,6,20)             108.3353         estimate D2E/DX2                !
 ! A35   A(7,6,21)             109.3124         estimate D2E/DX2                !
 ! A36   A(20,6,21)            106.0726         estimate D2E/DX2                !
 ! A37   A(6,7,8)              115.913          estimate D2E/DX2                !
 ! A38   A(6,7,10)             111.3464         estimate D2E/DX2                !
 ! A39   A(6,7,22)             112.2514         estimate D2E/DX2                !
 ! A40   A(8,7,10)              85.2227         estimate D2E/DX2                !
 ! A41   A(8,7,22)             115.2088         estimate D2E/DX2                !
 ! A42   A(10,7,22)            114.2653         estimate D2E/DX2                !
 ! A43   A(7,8,9)               84.4418         estimate D2E/DX2                !
 ! A44   A(7,8,23)             118.0575         estimate D2E/DX2                !
 ! A45   A(7,8,24)             114.0006         estimate D2E/DX2                !
 ! A46   A(9,8,23)             117.4439         estimate D2E/DX2                !
 ! A47   A(9,8,24)             114.0309         estimate D2E/DX2                !
 ! A48   A(23,8,24)            107.704          estimate D2E/DX2                !
 ! A49   A(8,9,10)              85.3309         estimate D2E/DX2                !
 ! A50   A(8,9,11)             115.5774         estimate D2E/DX2                !
 ! A51   A(8,9,25)             115.2356         estimate D2E/DX2                !
 ! A52   A(10,9,11)            111.444          estimate D2E/DX2                !
 ! A53   A(10,9,25)            114.3189         estimate D2E/DX2                !
 ! A54   A(11,9,25)            112.3163         estimate D2E/DX2                !
 ! A55   A(7,10,9)              84.6468         estimate D2E/DX2                !
 ! A56   A(7,10,26)            114.3153         estimate D2E/DX2                !
 ! A57   A(7,10,27)            117.0041         estimate D2E/DX2                !
 ! A58   A(9,10,26)            114.2744         estimate D2E/DX2                !
 ! A59   A(9,10,27)            116.9568         estimate D2E/DX2                !
 ! A60   A(26,10,27)           108.3357         estimate D2E/DX2                !
 ! A61   A(4,11,9)             112.0153         estimate D2E/DX2                !
 ! A62   A(4,11,28)            110.1488         estimate D2E/DX2                !
 ! A63   A(4,11,29)            110.7654         estimate D2E/DX2                !
 ! A64   A(9,11,28)            108.2764         estimate D2E/DX2                !
 ! A65   A(9,11,29)            109.5346         estimate D2E/DX2                !
 ! A66   A(28,11,29)           105.887          estimate D2E/DX2                !
 ! D1    D(5,1,2,3)            -24.1763         estimate D2E/DX2                !
 ! D2    D(5,1,2,14)          -146.3547         estimate D2E/DX2                !
 ! D3    D(5,1,2,15)            94.5622         estimate D2E/DX2                !
 ! D4    D(12,1,2,3)            94.2286         estimate D2E/DX2                !
 ! D5    D(12,1,2,14)          -27.9498         estimate D2E/DX2                !
 ! D6    D(12,1,2,15)         -147.0329         estimate D2E/DX2                !
 ! D7    D(13,1,2,3)          -145.6901         estimate D2E/DX2                !
 ! D8    D(13,1,2,14)           92.1314         estimate D2E/DX2                !
 ! D9    D(13,1,2,15)          -26.9516         estimate D2E/DX2                !
 ! D10   D(2,1,5,4)             40.0881         estimate D2E/DX2                !
 ! D11   D(2,1,5,18)           -78.2283         estimate D2E/DX2                !
 ! D12   D(2,1,5,19)           162.6048         estimate D2E/DX2                !
 ! D13   D(12,1,5,4)           -78.1059         estimate D2E/DX2                !
 ! D14   D(12,1,5,18)          163.5776         estimate D2E/DX2                !
 ! D15   D(12,1,5,19)           44.4108         estimate D2E/DX2                !
 ! D16   D(13,1,5,4)           161.5256         estimate D2E/DX2                !
 ! D17   D(13,1,5,18)           43.2092         estimate D2E/DX2                !
 ! D18   D(13,1,5,19)          -75.9577         estimate D2E/DX2                !
 ! D19   D(1,2,3,4)             -0.421          estimate D2E/DX2                !
 ! D20   D(1,2,3,16)          -123.2547         estimate D2E/DX2                !
 ! D21   D(1,2,3,17)           120.3384         estimate D2E/DX2                !
 ! D22   D(14,2,3,4)           121.4319         estimate D2E/DX2                !
 ! D23   D(14,2,3,16)           -1.4018         estimate D2E/DX2                !
 ! D24   D(14,2,3,17)         -117.8087         estimate D2E/DX2                !
 ! D25   D(15,2,3,4)          -119.6141         estimate D2E/DX2                !
 ! D26   D(15,2,3,16)          117.5522         estimate D2E/DX2                !
 ! D27   D(15,2,3,17)            1.1454         estimate D2E/DX2                !
 ! D28   D(2,3,4,5)             24.2198         estimate D2E/DX2                !
 ! D29   D(2,3,4,6)            -93.0798         estimate D2E/DX2                !
 ! D30   D(2,3,4,11)           141.8476         estimate D2E/DX2                !
 ! D31   D(16,3,4,5)           145.3377         estimate D2E/DX2                !
 ! D32   D(16,3,4,6)            28.038          estimate D2E/DX2                !
 ! D33   D(16,3,4,11)          -97.0345         estimate D2E/DX2                !
 ! D34   D(17,3,4,5)           -94.5982         estimate D2E/DX2                !
 ! D35   D(17,3,4,6)           148.1021         estimate D2E/DX2                !
 ! D36   D(17,3,4,11)           23.0295         estimate D2E/DX2                !
 ! D37   D(3,4,5,1)            -39.4252         estimate D2E/DX2                !
 ! D38   D(3,4,5,18)            78.073          estimate D2E/DX2                !
 ! D39   D(3,4,5,19)          -161.2295         estimate D2E/DX2                !
 ! D40   D(6,4,5,1)             77.3382         estimate D2E/DX2                !
 ! D41   D(6,4,5,18)          -165.1636         estimate D2E/DX2                !
 ! D42   D(6,4,5,19)           -44.4662         estimate D2E/DX2                !
 ! D43   D(11,4,5,1)          -158.3674         estimate D2E/DX2                !
 ! D44   D(11,4,5,18)          -40.8692         estimate D2E/DX2                !
 ! D45   D(11,4,5,19)           79.8283         estimate D2E/DX2                !
 ! D46   D(3,4,6,7)            -98.3505         estimate D2E/DX2                !
 ! D47   D(3,4,6,20)           141.0112         estimate D2E/DX2                !
 ! D48   D(3,4,6,21)            23.681          estimate D2E/DX2                !
 ! D49   D(5,4,6,7)            150.2819         estimate D2E/DX2                !
 ! D50   D(5,4,6,20)            29.6435         estimate D2E/DX2                !
 ! D51   D(5,4,6,21)           -87.6866         estimate D2E/DX2                !
 ! D52   D(11,4,6,7)            26.8782         estimate D2E/DX2                !
 ! D53   D(11,4,6,20)          -93.7601         estimate D2E/DX2                !
 ! D54   D(11,4,6,21)          148.9097         estimate D2E/DX2                !
 ! D55   D(3,4,11,9)            97.3516         estimate D2E/DX2                !
 ! D56   D(3,4,11,28)         -142.0729         estimate D2E/DX2                !
 ! D57   D(3,4,11,29)          -25.2671         estimate D2E/DX2                !
 ! D58   D(5,4,11,9)          -150.3996         estimate D2E/DX2                !
 ! D59   D(5,4,11,28)          -29.8241         estimate D2E/DX2                !
 ! D60   D(5,4,11,29)           86.9817         estimate D2E/DX2                !
 ! D61   D(6,4,11,9)           -26.7213         estimate D2E/DX2                !
 ! D62   D(6,4,11,28)           93.8543         estimate D2E/DX2                !
 ! D63   D(6,4,11,29)         -149.3399         estimate D2E/DX2                !
 ! D64   D(4,6,7,8)             32.1884         estimate D2E/DX2                !
 ! D65   D(4,6,7,10)           -63.0023         estimate D2E/DX2                !
 ! D66   D(4,6,7,22)           167.4566         estimate D2E/DX2                !
 ! D67   D(20,6,7,8)           154.1375         estimate D2E/DX2                !
 ! D68   D(20,6,7,10)           58.9469         estimate D2E/DX2                !
 ! D69   D(20,6,7,22)          -70.5943         estimate D2E/DX2                !
 ! D70   D(21,6,7,8)           -90.6999         estimate D2E/DX2                !
 ! D71   D(21,6,7,10)          174.1095         estimate D2E/DX2                !
 ! D72   D(21,6,7,22)           44.5683         estimate D2E/DX2                !
 ! D73   D(6,7,8,9)            -78.2989         estimate D2E/DX2                !
 ! D74   D(6,7,8,23)            39.921          estimate D2E/DX2                !
 ! D75   D(6,7,8,24)           167.8383         estimate D2E/DX2                !
 ! D76   D(10,7,8,9)            33.1396         estimate D2E/DX2                !
 ! D77   D(10,7,8,23)          151.3595         estimate D2E/DX2                !
 ! D78   D(10,7,8,24)          -80.7232         estimate D2E/DX2                !
 ! D79   D(22,7,8,9)           147.751          estimate D2E/DX2                !
 ! D80   D(22,7,8,23)          -94.0291         estimate D2E/DX2                !
 ! D81   D(22,7,8,24)           33.8883         estimate D2E/DX2                !
 ! D82   D(6,7,10,9)            82.8151         estimate D2E/DX2                !
 ! D83   D(6,7,10,26)         -162.9322         estimate D2E/DX2                !
 ! D84   D(6,7,10,27)          -34.7829         estimate D2E/DX2                !
 ! D85   D(8,7,10,9)           -33.172          estimate D2E/DX2                !
 ! D86   D(8,7,10,26)           81.0807         estimate D2E/DX2                !
 ! D87   D(8,7,10,27)         -150.77           estimate D2E/DX2                !
 ! D88   D(22,7,10,9)         -148.7124         estimate D2E/DX2                !
 ! D89   D(22,7,10,26)         -34.4597         estimate D2E/DX2                !
 ! D90   D(22,7,10,27)          93.6895         estimate D2E/DX2                !
 ! D91   D(7,8,9,10)           -33.1436         estimate D2E/DX2                !
 ! D92   D(7,8,9,11)            78.4222         estimate D2E/DX2                !
 ! D93   D(7,8,9,25)          -147.8701         estimate D2E/DX2                !
 ! D94   D(23,8,9,10)         -151.9576         estimate D2E/DX2                !
 ! D95   D(23,8,9,11)          -40.3918         estimate D2E/DX2                !
 ! D96   D(23,8,9,25)           93.3159         estimate D2E/DX2                !
 ! D97   D(24,8,9,10)           80.6886         estimate D2E/DX2                !
 ! D98   D(24,8,9,11)         -167.7456         estimate D2E/DX2                !
 ! D99   D(24,8,9,25)          -34.0378         estimate D2E/DX2                !
 ! D100  D(8,9,10,7)            33.233          estimate D2E/DX2                !
 ! D101  D(8,9,10,26)          -81.0607         estimate D2E/DX2                !
 ! D102  D(8,9,10,27)          150.877          estimate D2E/DX2                !
 ! D103  D(11,9,10,7)          -82.4445         estimate D2E/DX2                !
 ! D104  D(11,9,10,26)         163.2618         estimate D2E/DX2                !
 ! D105  D(11,9,10,27)          35.1996         estimate D2E/DX2                !
 ! D106  D(25,9,10,7)          148.8595         estimate D2E/DX2                !
 ! D107  D(25,9,10,26)          34.5658         estimate D2E/DX2                !
 ! D108  D(25,9,10,27)         -93.4964         estimate D2E/DX2                !
 ! D109  D(8,9,11,4)           -32.6823         estimate D2E/DX2                !
 ! D110  D(8,9,11,28)         -154.3389         estimate D2E/DX2                !
 ! D111  D(8,9,11,29)           90.6327         estimate D2E/DX2                !
 ! D112  D(10,9,11,4)           62.5413         estimate D2E/DX2                !
 ! D113  D(10,9,11,28)         -59.1154         estimate D2E/DX2                !
 ! D114  D(10,9,11,29)        -174.1437         estimate D2E/DX2                !
 ! D115  D(25,9,11,4)         -167.7052         estimate D2E/DX2                !
 ! D116  D(25,9,11,28)          70.6382         estimate D2E/DX2                !
 ! D117  D(25,9,11,29)         -44.3902         estimate D2E/DX2                !
 --------------------------------------------------------------------------------
 Trust Radius=3.00D-01 FncErr=1.00D-07 GrdErr=1.00D-06 EigMax=2.50D+02 EigMin=1.00D-04
 Number of steps in this run=    174 maximum allowed number of steps=    174.
 GradGradGradGradGradGradGradGradGradGradGradGradGradGradGradGradGradGrad

                          Input orientation:                          
 ---------------------------------------------------------------------
 Center     Atomic      Atomic             Coordinates (Angstroms)
 Number     Number       Type             X           Y           Z
 ---------------------------------------------------------------------
      1          6           0       -2.627000    0.296000    0.152000
      2          6           0       -2.278960   -0.840830   -0.795100
      3          6           0       -0.757910   -1.016730   -0.719330
      4          6           0       -0.226660    0.046170    0.281350
      5          6           0       -1.477620    0.306620    1.145090
      6          6           0        0.193890    1.336730   -0.484680
      7          6           0        1.707370    1.377950   -0.730450
      8          6           0        2.401620   -0.002140   -0.937910
      9          6           0        2.303130   -0.114290    0.610880
     10          6           0        2.496790    1.427680    0.607760
     11          6           0        0.927290   -0.504800    1.159500
     12          1           0       -2.671120    1.244780   -0.394990
     13          1           0       -3.595120    0.146360    0.638990
     14          1           0       -2.614900   -0.627670   -1.814870
     15          1           0       -2.772080   -1.766240   -0.474990
     16          1           0       -0.318680   -0.916020   -1.717020
     17          1           0       -0.538940   -2.036460   -0.381550
     18          1           0       -1.618380   -0.501720    1.874530
     19          1           0       -1.425790    1.248420    1.700790
     20          1           0       -0.088050    2.232080    0.083750
     21          1           0       -0.331580    1.408590   -1.444720
     22          1           0        1.989660    2.154330   -1.448280
     23          1           0        1.880420   -0.754440   -1.530310
     24          1           0        3.429720    0.067620   -1.316630
     25          1           0        3.114830   -0.669480    1.091030
     26          1           0        3.540320    1.751070    0.505010
     27          1           0        2.043200    1.985870    1.431300
     28          1           0        0.841990   -0.116880    2.183020
     29          1           0        0.863230   -1.595730    1.245750
 ---------------------------------------------------------------------
                    Distance matrix (angstroms):
                    1          2          3          4          5
     1  C    0.000000
     2  C    1.520037   0.000000
     3  C    2.444580   1.533061   0.000000
     4  C    2.416770   2.481421   1.553494   0.000000
     5  C    1.519018   2.392305   2.396935   1.542330   0.000000
     6  C    3.073418   3.309549   2.549462   1.558592   2.551710
     7  C    4.553690   4.562674   3.436891   2.556922   3.848319
     8  C    5.154009   4.757271   3.325628   2.897721   4.413924
     9  C    4.968409   4.847699   3.457430   2.556203   3.841434
    10  C    5.267033   5.470095   4.281283   3.071204   4.164305
    11  C    3.780121   3.770068   2.575262   1.551230   2.538149
    12  H    1.096051   2.159548   2.979932   2.805260   2.162506
    13  H    1.093987   2.182530   3.353740   3.388874   2.183032
    14  H    2.172991   1.094634   2.190887   3.248367   3.305702
    15  H    2.160324   1.096367   2.162949   3.214972   2.932070
    16  H    3.207892   2.167553   1.094738   2.219856   3.321094
    17  H    3.175695   2.151331   1.096309   2.207782   2.949877
    18  H    2.149600   2.770972   2.780963   2.185244   1.097866
    19  H    2.179165   3.364867   3.381412   2.213171   1.094749
    20  H    3.193639   3.874950   3.412978   2.199196   2.600912
    21  H    3.009373   3.045355   2.567124   2.201480   3.038891
    22  H    5.227603   5.255354   4.258654   3.513977   4.707614
    23  H    4.924472   4.224741   2.772593   2.891863   4.422674
    24  H    6.236416   5.803990   4.366787   3.990378   5.495377
    25  H    5.897672   5.716626   4.289068   3.511879   4.695348
    26  H    6.346470   6.501711   5.256853   4.140875   5.260785
    27  H    5.128649   5.623892   4.635411   3.199545   3.911262
    28  H    4.040966   4.374201   3.434100   2.187452   2.576284
    29  H    4.117844   3.822081   2.612446   2.194029   3.018053
                    6          7          8          9         10
     6  C    0.000000
     7  C    1.533859   0.000000
     8  C    2.621462   1.558740   0.000000
     9  C    2.784709   2.093054   1.555965   0.000000
    10  C    2.550499   1.554498   2.107733   1.554087   0.000000
    11  C    2.575352   2.779421   2.612555   1.531802   2.549946
    12  H    2.867888   4.393341   5.251882   5.253761   5.267471
    13  H    4.127495   5.613250   6.202383   5.904073   6.225281
    14  H    3.676625   4.886767   5.130869   5.507707   6.018553
    15  H    4.292493   5.478746   5.485756   5.446633   6.255754
    16  H    2.618448   3.215664   2.973587   3.596634   4.338710
    17  H    3.453417   4.101931   3.618686   3.571697   4.711121
    18  H    3.497155   4.623818   4.931511   4.138255   4.718253
    19  H    2.721661   3.967921   4.814115   4.117005   4.075964
    20  H    1.097385   2.148486   3.497711   3.391321   2.757362
    21  H    1.096795   2.160657   3.117274   3.672377   3.494670
    22  H    2.195856   1.094410   2.254008   3.079779   2.238862
    23  H    2.882832   2.284034   1.090203   2.274460   3.116553
    24  H    3.573986   2.242111   1.097855   2.239998   2.534442
    25  H    3.878096   3.080698   2.251801   1.094366   2.239108
    26  H    3.514222   2.241715   2.540158   2.240852   1.097312
    27  H    2.740859   2.270575   3.113488   2.269653   1.093407
    28  H    3.106387   3.386991   3.490819   2.146290   2.757802
    29  H    3.470119   3.668884   3.110393   2.161258   3.495219
                   11         12         13         14         15
    11  C    0.000000
    12  H    4.292554   0.000000
    13  H    4.598601   1.769016   0.000000
    14  H    4.626995   2.350593   2.753431   0.000000
    15  H    4.236523   3.013774   2.361437   1.765312   0.000000
    16  H    3.161631   3.456992   4.173068   2.316322   2.878313
    17  H    2.621192   3.913171   3.891843   2.889413   2.251369
    18  H    2.644185   3.051106   2.419518   3.823688   2.906936
    19  H    2.983917   2.437858   2.654797   4.158553   3.954073
    20  H    3.111055   2.806458   4.118016   4.262382   4.847966
    21  H    3.468109   2.569477   4.072562   3.081707   4.120190
    22  H    3.872999   4.864111   6.291137   5.392206   6.244384
    23  H    2.864586   5.099250   5.958090   4.506101   4.876802
    24  H    3.566657   6.281351   7.292395   6.104843   6.521788
    25  H    2.194798   6.272947   6.774464   6.424625   6.189589
    26  H    3.513578   6.296691   7.314885   6.994782   7.292343
    27  H    2.742730   5.109732   5.983494   6.250289   6.395248
    28  H    1.097885   4.565325   4.705451   5.309813   4.779844
    29  H    1.096208   4.822049   4.824927   4.733067   4.025605
                   16         17         18         19         20
    16  H    0.000000
    17  H    1.757094   0.000000
    18  H    3.841887   2.934368   0.000000
    19  H    4.194272   3.989120   1.769256   0.000000
    20  H    3.634074   4.317434   3.608665   2.317748   0.000000
    21  H    2.340540   3.611329   4.040119   3.334244   1.753187
    22  H    3.850676   5.009436   5.577958   4.733140   2.582642
    23  H    2.212919   2.969264   4.888599   5.038103   3.924203
    24  H    3.895942   4.588223   5.999247   5.837387   4.361268
    25  H    4.442400   4.169792   4.800551   4.966626   4.437579
    26  H    5.190633   5.636642   5.793344   5.132718   3.684277
    27  H    4.889924   5.112046   4.448789   3.556733   2.533523
    28  H    4.146817   3.488377   2.509320   2.690616   3.284741
    29  H    3.261430   2.192813   2.783992   3.679112   4.111850
                   21         22         23         24         25
    21  H    0.000000
    22  H    2.438093   0.000000
    23  H    3.094991   2.911976   0.000000
    24  H    3.995245   2.538792   1.766854   0.000000
    25  H    4.756695   3.960809   2.898691   2.537577   0.000000
    26  H    4.348603   2.526362   3.629790   2.482863   2.526564
    27  H    3.774165   2.885000   4.038184   3.626740   2.883584
    28  H    4.106680   4.434172   3.908150   4.356367   2.581397
    29  H    4.206202   4.752851   3.073915   3.989912   2.439586
                   26         27         28         29
    26  H    0.000000
    27  H    1.776095   0.000000
    28  H    3.685911   2.535655   0.000000
    29  H    4.349319   3.775529   1.750978   0.000000
 Stoichiometry    C11H18
 Framework group  C1[X(C11H18)]
 Deg. of freedom    81
 Full point group                 C1      NOp   1
 Largest Abelian subgroup         C1      NOp   1
 Largest concise Abelian subgroup C1      NOp   1
                         Standard orientation:                         
 ---------------------------------------------------------------------
 Center     Atomic      Atomic             Coordinates (Angstroms)
 Number     Number       Type             X           Y           Z
 ---------------------------------------------------------------------
      1          6           0        2.751110   -0.550282   -0.454148
      2          6           0        2.671194    0.907564   -0.031286
      3          6           0        1.220066    1.154892    0.396886
      4          6           0        0.455051   -0.183480    0.204904
      5          6           0        1.603869   -1.208815    0.292570
      6          6           0       -0.211129   -0.219750   -1.203677
      7          6           0       -1.693577    0.168155   -1.135843
      8          6           0       -2.076758    1.205126   -0.036964
      9          6           0       -1.990725   -0.012335    0.928135
     10          6           0       -2.504809   -0.844372   -0.279598
     11          6           0       -0.575819   -0.433648    1.336734
     12          1           0        2.606280   -0.639183   -1.536945
     13          1           0        3.718145   -0.999204   -0.208955
     14          1           0        2.976887    1.575743   -0.842651
     15          1           0        3.341107    1.094398    0.816257
     16          1           0        0.791390    1.975378   -0.187486
     17          1           0        1.213535    1.478760    1.444244
     18          1           0        1.895806   -1.373213    1.338063
     19          1           0        1.342636   -2.182180   -0.134975
     20          1           0       -0.136657   -1.223877   -1.640067
     21          1           0        0.308260    0.452235   -1.897674
     22          1           0       -2.117352    0.360548   -2.126364
     23          1           0       -1.395931    2.037516    0.142322
     24          1           0       -3.087949    1.618462   -0.146199
     25          1           0       -2.677523    0.017820    1.779625
     26          1           0       -3.590550   -0.796252   -0.431075
     27          1           0       -2.197121   -1.892555   -0.326256
     28          1           0       -0.596558   -1.499138    1.600650
     29          1           0       -0.285243    0.096410    2.251215
 ---------------------------------------------------------------------
 Rotational constants (GHZ):           2.3931582           0.7986367           0.7881803
 Standard basis: 6-31G(d) (6D, 7F)
 There are   201 symmetry adapted cartesian basis functions of A   symmetry.
 There are   201 symmetry adapted basis functions of A   symmetry.
   201 basis functions,   380 primitive gaussians,   201 cartesian basis functions
    42 alpha electrons       42 beta electrons
       nuclear repulsion energy       670.8628860475 Hartrees.
 NAtoms=   29 NActive=   29 NUniq=   29 SFac= 1.00D+00 NAtFMM=   60 NAOKFM=F Big=F
 Integral buffers will be    131072 words long.
 Raffenetti 2 integral format.
 Two-electron integral symmetry is turned on.
 Nuclear repulsion after empirical dispersion term =      670.8077424374 Hartrees.
 One-electron integrals computed using PRISM.
 NBasis=   201 RedAO= T EigKep=  2.37D-03  NBF=   201
 NBsUse=   201 1.00D-06 EigRej= -1.00D+00 NBFU=   201
 ExpMin= 1.61D-01 ExpMax= 3.05D+03 ExpMxC= 4.57D+02 IAcc=3 IRadAn=         5 AccDes= 0.00D+00
 Harris functional with IExCor=  402 and IRadAn=       5 diagonalized for initial guess.
 HarFok:  IExCor=  402 AccDes= 0.00D+00 IRadAn=         5 IDoV= 1 UseB2=F ITyADJ=14
 ICtDFT=  3500011 ScaDFX=  1.000000  1.000000  1.000000  1.000000
 FoFCou: FMM=F IPFlag=           0 FMFlag=      100000 FMFlg1=           0
         NFxFlg=           0 DoJE=T BraDBF=F KetDBF=T FulRan=T
         wScrn=  0.000000 ICntrl=       500 IOpCl=  0 I1Cent=   200000004 NGrid=           0
         NMat0=    1 NMatS0=      1 NMatT0=    0 NMatD0=    1 NMtDS0=    0 NMtDT0=    0
 Petite list used in FoFCou.
 Keep R1 ints in memory in canonical form, NReq=210198177.
 Requested convergence on RMS density matrix=1.00D-08 within  32 cycles.
 Requested convergence on MAX density matrix=1.00D-06.
 Requested convergence on             energy=1.00D-06.
 No special actions if energy rises.
 Integral accuracy reduced to 1.0D-05 until final iterations.
 Initial convergence to 1.0D-05 achieved.  Increase integral accuracy.
 SCF Done:  E(RB3LYP) =  -430.029381926     A.U. after   12 cycles
            NFock= 12  Conv=0.66D-08     -V/T= 2.0096
 QCSCF skips out because SCF is already converged.

 **********************************************************************

            Population analysis using the SCF density.

 **********************************************************************

 Orbital symmetries:
       Occupied  (A) (A) (A) (A) (A) (A) (A) (A) (A) (A) (A) (A)
                 (A) (A) (A) (A) (A) (A) (A) (A) (A) (A) (A) (A)
                 (A) (A) (A) (A) (A) (A) (A) (A) (A) (A) (A) (A)
                 (A) (A) (A) (A) (A) (A)
       Virtual   (A) (A) (A) (A) (A) (A) (A) (A) (A) (A) (A) (A)
                 (A) (A) (A) (A) (A) (A) (A) (A) (A) (A) (A) (A)
                 (A) (A) (A) (A) (A) (A) (A) (A) (A) (A) (A) (A)
                 (A) (A) (A) (A) (A) (A) (A) (A) (A) (A) (A) (A)
                 (A) (A) (A) (A) (A) (A) (A) (A) (A) (A) (A) (A)
                 (A) (A) (A) (A) (A) (A) (A) (A) (A) (A) (A) (A)
                 (A) (A) (A) (A) (A) (A) (A) (A) (A) (A) (A) (A)
                 (A) (A) (A) (A) (A) (A) (A) (A) (A) (A) (A) (A)
                 (A) (A) (A) (A) (A) (A) (A) (A) (A) (A) (A) (A)
                 (A) (A) (A) (A) (A) (A) (A) (A) (A) (A) (A) (A)
                 (A) (A) (A) (A) (A) (A) (A) (A) (A) (A) (A) (A)
                 (A) (A) (A) (A) (A) (A) (A) (A) (A) (A) (A) (A)
                 (A) (A) (A) (A) (A) (A) (A) (A) (A) (A) (A) (A)
                 (A) (A) (A)
 The electronic state is 1-A.
 Alpha  occ. eigenvalues --  -10.18565 -10.18037 -10.17848 -10.17563 -10.17308
 Alpha  occ. eigenvalues --  -10.17185 -10.16843 -10.16829 -10.16806 -10.16794
 Alpha  occ. eigenvalues --  -10.16759  -0.86668  -0.82861  -0.73987  -0.72191
 Alpha  occ. eigenvalues --   -0.70356  -0.64932  -0.63878  -0.58644  -0.55657
 Alpha  occ. eigenvalues --   -0.54284  -0.51344  -0.48890  -0.46848  -0.44797
 Alpha  occ. eigenvalues --   -0.43918  -0.42945  -0.41548  -0.39862  -0.38381
 Alpha  occ. eigenvalues --   -0.36305  -0.36118  -0.35158  -0.32828  -0.32778
 Alpha  occ. eigenvalues --   -0.32227  -0.31398  -0.30683  -0.29802  -0.28629
 Alpha  occ. eigenvalues --   -0.27825  -0.26603
 Alpha virt. eigenvalues --    0.07344   0.09595   0.10411   0.11582   0.12842
 Alpha virt. eigenvalues --    0.13658   0.14250   0.15050   0.15846   0.16183
 Alpha virt. eigenvalues --    0.16485   0.17554   0.18601   0.18917   0.19580
 Alpha virt. eigenvalues --    0.19770   0.21191   0.21960   0.22179   0.22813
 Alpha virt. eigenvalues --    0.23638   0.24590   0.25323   0.26209   0.27209
 Alpha virt. eigenvalues --    0.28498   0.31075   0.32370   0.33639   0.34206
 Alpha virt. eigenvalues --    0.35661   0.50709   0.51197   0.52533   0.53410
 Alpha virt. eigenvalues --    0.54887   0.56293   0.58269   0.59196   0.60917
 Alpha virt. eigenvalues --    0.61795   0.62802   0.64710   0.64841   0.66160
 Alpha virt. eigenvalues --    0.66596   0.68552   0.69035   0.71485   0.73213
 Alpha virt. eigenvalues --    0.74055   0.75382   0.76291   0.77588   0.78051
 Alpha virt. eigenvalues --    0.79794   0.83198   0.84856   0.85813   0.86559
 Alpha virt. eigenvalues --    0.87016   0.87565   0.87756   0.88123   0.88729
 Alpha virt. eigenvalues --    0.89548   0.90905   0.92574   0.94006   0.94849
 Alpha virt. eigenvalues --    0.95318   0.95783   0.96578   0.97796   0.97967
 Alpha virt. eigenvalues --    0.99629   1.00829   1.04075   1.05748   1.08702
 Alpha virt. eigenvalues --    1.13733   1.18948   1.23378   1.28777   1.31844
 Alpha virt. eigenvalues --    1.34512   1.37346   1.43205   1.51021   1.54179
 Alpha virt. eigenvalues --    1.55419   1.60767   1.62697   1.65449   1.65878
 Alpha virt. eigenvalues --    1.68938   1.73396   1.77085   1.78023   1.79775
 Alpha virt. eigenvalues --    1.80959   1.83747   1.85658   1.87320   1.88634
 Alpha virt. eigenvalues --    1.90589   1.92649   1.96475   1.97208   1.98799
 Alpha virt. eigenvalues --    2.01705   2.03354   2.03759   2.05526   2.08971
 Alpha virt. eigenvalues --    2.09852   2.12069   2.14558   2.18298   2.19702
 Alpha virt. eigenvalues --    2.21433   2.23556   2.25273   2.26802   2.29901
 Alpha virt. eigenvalues --    2.34511   2.36176   2.36502   2.40128   2.41792
 Alpha virt. eigenvalues --    2.43230   2.45726   2.46422   2.50469   2.51640
 Alpha virt. eigenvalues --    2.56050   2.57866   2.60056   2.62005   2.63302
 Alpha virt. eigenvalues --    2.66517   2.68274   2.72074   2.81385   2.82822
 Alpha virt. eigenvalues --    2.83869   2.87913   2.91349   4.16088   4.22040
 Alpha virt. eigenvalues --    4.28423   4.31509   4.33563   4.38733   4.51698
 Alpha virt. eigenvalues --    4.60562   4.61708   4.77132   4.82284
          Condensed to atoms (all electrons):
               1          2          3          4          5          6
     1  C    5.030428   0.385799  -0.077771  -0.050593   0.365454  -0.001495
     2  C    0.385799   5.045816   0.358574  -0.057222  -0.081057  -0.002660
     3  C   -0.077771   0.358574   5.126600   0.393957  -0.083457  -0.041878
     4  C   -0.050593  -0.057222   0.393957   4.775086   0.391092   0.378283
     5  C    0.365454  -0.081057  -0.083457   0.391092   5.123142  -0.050963
     6  C   -0.001495  -0.002660  -0.041878   0.378283  -0.050963   5.084425
     7  C    0.000110   0.000014  -0.004521  -0.022220   0.003688   0.381324
     8  C   -0.000024   0.000085   0.002813  -0.008056   0.000140  -0.043743
     9  C   -0.000191  -0.000048  -0.002660  -0.026248   0.004192  -0.016410
    10  C   -0.000007  -0.000007  -0.000096  -0.012352   0.000028  -0.039083
    11  C    0.005149   0.005167  -0.043989   0.384972  -0.041956  -0.058162
    12  H    0.377627  -0.036931   0.000624  -0.005852  -0.036402   0.003770
    13  H    0.369721  -0.033836   0.005852   0.005222  -0.029668  -0.000018
    14  H   -0.032090   0.373102  -0.033212   0.003277   0.005305   0.000377
    15  H   -0.037559   0.376349  -0.033413   0.001238   0.002403   0.000025
    16  H    0.003832  -0.033464   0.364614  -0.033262   0.006122  -0.008865
    17  H    0.003507  -0.035623   0.365389  -0.034218   0.001207   0.005109
    18  H   -0.041055  -0.000490  -0.002027  -0.039762   0.369562   0.005763
    19  H   -0.031913   0.006054   0.006846  -0.027577   0.359589  -0.009580
    20  H   -0.000957   0.000092   0.005366  -0.037427  -0.007788   0.360980
    21  H    0.001177   0.001878  -0.010998  -0.035224   0.000043   0.361922
    22  H   -0.000000   0.000010  -0.000098   0.003939  -0.000117  -0.035414
    23  H    0.000011   0.000070  -0.000137  -0.001290  -0.000023  -0.003869
    24  H    0.000000  -0.000003   0.000064  -0.000078   0.000001   0.003892
    25  H    0.000003   0.000004  -0.000114   0.004146  -0.000116   0.000612
    26  H   -0.000000  -0.000000   0.000001   0.000093   0.000013   0.003916
    27  H    0.000006  -0.000000   0.000031  -0.000683  -0.000157  -0.004315
    28  H    0.000323  -0.000223   0.005765  -0.038142  -0.010079   0.000546
    29  H   -0.000121   0.000386  -0.013025  -0.030806  -0.000351   0.004723
               7          8          9         10         11         12
     1  C    0.000110  -0.000024  -0.000191  -0.000007   0.005149   0.377627
     2  C    0.000014   0.000085  -0.000048  -0.000007   0.005167  -0.036931
     3  C   -0.004521   0.002813  -0.002660  -0.000096  -0.043989   0.000624
     4  C   -0.022220  -0.008056  -0.026248  -0.012352   0.384972  -0.005852
     5  C    0.003688   0.000140   0.004192   0.000028  -0.041956  -0.036402
     6  C    0.381324  -0.043743  -0.016410  -0.039083  -0.058162   0.003770
     7  C    4.999252   0.345462  -0.112919   0.349595  -0.016568   0.000011
     8  C    0.345462   5.195460   0.345639  -0.178651  -0.044000   0.000001
     9  C   -0.112919   0.345639   5.001605   0.352138   0.375813   0.000008
    10  C    0.349595  -0.178651   0.352138   5.191459  -0.040139  -0.000001
    11  C   -0.016568  -0.044000   0.375813  -0.040139   5.080320   0.000041
    12  H    0.000011   0.000001   0.000008  -0.000001   0.000041   0.600430
    13  H   -0.000001   0.000000   0.000002   0.000000  -0.000181  -0.036227
    14  H   -0.000001   0.000004   0.000000  -0.000000  -0.000111  -0.009480
    15  H   -0.000002  -0.000001   0.000002   0.000000  -0.000153   0.005476
    16  H    0.001074  -0.001389  -0.000100   0.000105   0.002618   0.000148
    17  H   -0.000008  -0.000266   0.000289   0.000025  -0.009844  -0.000164
    18  H   -0.000152  -0.000001   0.000263  -0.000008  -0.006541   0.005670
    19  H    0.000024   0.000037  -0.000210   0.000013  -0.000873  -0.005956
    20  H   -0.037465   0.005975  -0.001239  -0.008964   0.000842   0.001391
    21  H   -0.030282  -0.002733  -0.000249   0.005413   0.004596   0.000075
    22  H    0.356945  -0.038347   0.012333  -0.037779   0.000695   0.000003
    23  H   -0.029461   0.353696  -0.029077   0.013400  -0.003900   0.000000
    24  H   -0.027917   0.367528  -0.027374  -0.001261   0.003902  -0.000000
    25  H    0.012469  -0.038784   0.355320  -0.037320  -0.033786   0.000000
    26  H   -0.027686   0.001961  -0.027759   0.362472   0.003889  -0.000000
    27  H   -0.033200   0.013795  -0.033298   0.355332  -0.004057   0.000000
    28  H   -0.001104   0.006125  -0.038432  -0.009245   0.364326  -0.000014
    29  H   -0.000274  -0.002765  -0.029972   0.005347   0.357541  -0.000006
              13         14         15         16         17         18
     1  C    0.369721  -0.032090  -0.037559   0.003832   0.003507  -0.041055
     2  C   -0.033836   0.373102   0.376349  -0.033464  -0.035623  -0.000490
     3  C    0.005852  -0.033212  -0.033413   0.364614   0.365389  -0.002027
     4  C    0.005222   0.003277   0.001238  -0.033262  -0.034218  -0.039762
     5  C   -0.029668   0.005305   0.002403   0.006122   0.001207   0.369562
     6  C   -0.000018   0.000377   0.000025  -0.008865   0.005109   0.005763
     7  C   -0.000001  -0.000001  -0.000002   0.001074  -0.000008  -0.000152
     8  C    0.000000   0.000004  -0.000001  -0.001389  -0.000266  -0.000001
     9  C    0.000002   0.000000   0.000002  -0.000100   0.000289   0.000263
    10  C    0.000000  -0.000000   0.000000   0.000105   0.000025  -0.000008
    11  C   -0.000181  -0.000111  -0.000153   0.002618  -0.009844  -0.006541
    12  H   -0.036227  -0.009480   0.005476   0.000148  -0.000164   0.005670
    13  H    0.600240   0.002706  -0.008580  -0.000132  -0.000173  -0.006702
    14  H    0.002706   0.600876  -0.036722  -0.010030   0.004570  -0.000087
    15  H   -0.008580  -0.036722   0.603116   0.004468  -0.012066   0.001815
    16  H   -0.000132  -0.010030   0.004468   0.595510  -0.037728  -0.000098
    17  H   -0.000173   0.004570  -0.012066  -0.037728   0.608869   0.000988
    18  H   -0.006702  -0.000087   0.001815  -0.000098   0.000988   0.617267
    19  H    0.001162  -0.000215  -0.000151  -0.000216  -0.000181  -0.036158
    20  H   -0.000061  -0.000025   0.000011   0.000230  -0.000211   0.000199
    21  H    0.000015  -0.000131  -0.000067   0.003172   0.000318  -0.000213
    22  H   -0.000000  -0.000001  -0.000000  -0.000198   0.000009   0.000003
    23  H   -0.000000  -0.000011   0.000003   0.005059   0.000732   0.000002
    24  H   -0.000000   0.000000   0.000000   0.000028  -0.000006  -0.000000
    25  H   -0.000000  -0.000000  -0.000000   0.000012  -0.000037  -0.000007
    26  H    0.000000   0.000000  -0.000000  -0.000000  -0.000001  -0.000000
    27  H   -0.000000  -0.000000   0.000000  -0.000004  -0.000001   0.000008
    28  H   -0.000006   0.000004   0.000003  -0.000209   0.000287   0.000973
    29  H    0.000005  -0.000010  -0.000072   0.000257   0.009000   0.002575
              19         20         21         22         23         24
     1  C   -0.031913  -0.000957   0.001177  -0.000000   0.000011   0.000000
     2  C    0.006054   0.000092   0.001878   0.000010   0.000070  -0.000003
     3  C    0.006846   0.005366  -0.010998  -0.000098  -0.000137   0.000064
     4  C   -0.027577  -0.037427  -0.035224   0.003939  -0.001290  -0.000078
     5  C    0.359589  -0.007788   0.000043  -0.000117  -0.000023   0.000001
     6  C   -0.009580   0.360980   0.361922  -0.035414  -0.003869   0.003892
     7  C    0.000024  -0.037465  -0.030282   0.356945  -0.029461  -0.027917
     8  C    0.000037   0.005975  -0.002733  -0.038347   0.353696   0.367528
     9  C   -0.000210  -0.001239  -0.000249   0.012333  -0.029077  -0.027374
    10  C    0.000013  -0.008964   0.005413  -0.037779   0.013400  -0.001261
    11  C   -0.000873   0.000842   0.004596   0.000695  -0.003900   0.003902
    12  H   -0.005956   0.001391   0.000075   0.000003   0.000000  -0.000000
    13  H    0.001162  -0.000061   0.000015  -0.000000  -0.000000  -0.000000
    14  H   -0.000215  -0.000025  -0.000131  -0.000001  -0.000011   0.000000
    15  H   -0.000151   0.000011  -0.000067  -0.000000   0.000003   0.000000
    16  H   -0.000216   0.000230   0.003172  -0.000198   0.005059   0.000028
    17  H   -0.000181  -0.000211   0.000318   0.000009   0.000732  -0.000006
    18  H   -0.036158   0.000199  -0.000213   0.000003   0.000002  -0.000000
    19  H    0.600352   0.006860  -0.000026  -0.000010  -0.000003   0.000000
    20  H    0.006860   0.614551  -0.039487  -0.000950  -0.000094  -0.000114
    21  H   -0.000026  -0.039487   0.609888  -0.005201   0.001097  -0.000051
    22  H   -0.000010  -0.000950  -0.005201   0.642613   0.001398  -0.004538
    23  H   -0.000003  -0.000094   0.001097   0.001398   0.597986  -0.037545
    24  H    0.000000  -0.000114  -0.000051  -0.004538  -0.037545   0.589276
    25  H    0.000001   0.000015   0.000024  -0.000732   0.001270  -0.004518
    26  H   -0.000000   0.000159  -0.000158  -0.005041  -0.000218   0.004087
    27  H    0.000176   0.004955   0.000048   0.001387  -0.000613  -0.000166
    28  H    0.002976   0.000717  -0.000182   0.000015  -0.000086  -0.000122
    29  H   -0.000180  -0.000182  -0.000137   0.000025   0.001309  -0.000055
              25         26         27         28         29
     1  C    0.000003  -0.000000   0.000006   0.000323  -0.000121
     2  C    0.000004  -0.000000  -0.000000  -0.000223   0.000386
     3  C   -0.000114   0.000001   0.000031   0.005765  -0.013025
     4  C    0.004146   0.000093  -0.000683  -0.038142  -0.030806
     5  C   -0.000116   0.000013  -0.000157  -0.010079  -0.000351
     6  C    0.000612   0.003916  -0.004315   0.000546   0.004723
     7  C    0.012469  -0.027686  -0.033200  -0.001104  -0.000274
     8  C   -0.038784   0.001961   0.013795   0.006125  -0.002765
     9  C    0.355320  -0.027759  -0.033298  -0.038432  -0.029972
    10  C   -0.037320   0.362472   0.355332  -0.009245   0.005347
    11  C   -0.033786   0.003889  -0.004057   0.364326   0.357541
    12  H    0.000000  -0.000000   0.000000  -0.000014  -0.000006
    13  H   -0.000000   0.000000  -0.000000  -0.000006   0.000005
    14  H   -0.000000   0.000000  -0.000000   0.000004  -0.000010
    15  H   -0.000000  -0.000000   0.000000   0.000003  -0.000072
    16  H    0.000012  -0.000000  -0.000004  -0.000209   0.000257
    17  H   -0.000037  -0.000001  -0.000001   0.000287   0.009000
    18  H   -0.000007  -0.000000   0.000008   0.000973   0.002575
    19  H    0.000001  -0.000000   0.000176   0.002976  -0.000180
    20  H    0.000015   0.000159   0.004955   0.000717  -0.000182
    21  H    0.000024  -0.000158   0.000048  -0.000182  -0.000137
    22  H   -0.000732  -0.005041   0.001387   0.000015   0.000025
    23  H    0.001270  -0.000218  -0.000613  -0.000086   0.001309
    24  H   -0.004518   0.004087  -0.000166  -0.000122  -0.000055
    25  H    0.643596  -0.005123   0.001434  -0.000840  -0.005155
    26  H   -0.005123   0.595332  -0.037508   0.000160  -0.000158
    27  H    0.001434  -0.037508   0.614314   0.004923   0.000033
    28  H   -0.000840   0.000160   0.004923   0.616786  -0.038904
    29  H   -0.005155  -0.000158   0.000033  -0.038904   0.608784
 Mulliken charges:
               1
     1  C   -0.269369
     2  C   -0.271836
     3  C   -0.289104
     4  C    0.119709
     5  C   -0.289849
     6  C   -0.279211
     7  C   -0.106187
     8  C   -0.279960
     9  C   -0.101420
    10  C   -0.270412
    11  C   -0.285611
    12  H    0.135757
    13  H    0.130662
    14  H    0.131901
    15  H    0.133877
    16  H    0.138447
    17  H    0.130228
    18  H    0.128215
    19  H    0.129159
    20  H    0.132621
    21  H    0.135469
    22  H    0.109048
    23  H    0.130295
    24  H    0.134971
    25  H    0.107627
    26  H    0.131567
    27  H    0.117559
    28  H    0.133661
    29  H    0.132186
 Sum of Mulliken charges =   0.00000
 Mulliken charges with hydrogens summed into heavy atoms:
               1
     1  C   -0.002950
     2  C   -0.006058
     3  C   -0.020429
     4  C    0.119709
     5  C   -0.032474
     6  C   -0.011120
     7  C    0.002862
     8  C   -0.014694
     9  C    0.006207
    10  C   -0.021287
    11  C   -0.019765
 Electronic spatial extent (au):  <R**2>=           1751.1056
 Charge=             -0.0000 electrons
 Dipole moment (field-independent basis, Debye):
    X=              0.1211    Y=              0.0198    Z=              0.0056  Tot=              0.1229
 Quadrupole moment (field-independent basis, Debye-Ang):
   XX=            -69.8333   YY=            -70.1441   ZZ=            -69.4229
   XY=             -0.2927   XZ=              0.5077   YZ=             -0.1334
 Traceless Quadrupole moment (field-independent basis, Debye-Ang):
   XX=             -0.0332   YY=             -0.3440   ZZ=              0.3772
   XY=             -0.2927   XZ=              0.5077   YZ=             -0.1334
 Octapole moment (field-independent basis, Debye-Ang**2):
  XXX=             -5.6247  YYY=             -0.8337  ZZZ=              0.7360  XYY=              0.2363
  XXY=              1.5366  XXZ=              1.0737  XZZ=              2.7338  YZZ=              0.8848
  YYZ=             -0.8929  XYZ=             -0.1795
 Hexadecapole moment (field-independent basis, Debye-Ang**3):
 XXXX=          -1592.2540 YYYY=           -421.7067 ZZZZ=           -388.4144 XXXY=            -11.1225
 XXXZ=             11.3778 YYYX=             -0.2317 YYYZ=             -0.4344 ZZZX=              0.0519
 ZZZY=              0.2264 XXYY=           -343.2941 XXZZ=           -333.3418 YYZZ=           -135.7957
 XXYZ=             -2.0395 YYXZ=             -0.8053 ZZXY=              1.7521
 N-N= 6.708077424374D+02 E-N=-2.335833286019D+03  KE= 4.259280768774D+02
 Calling FoFJK, ICntrl=      2127 FMM=F ISym2X=0 I1Cent= 0 IOpClX= 0 NMat=1 NMatS=1 NMatT=0.
 ***** Axes restored to original set *****
 -------------------------------------------------------------------
 Center     Atomic                   Forces (Hartrees/Bohr)
 Number     Number              X              Y              Z
 -------------------------------------------------------------------
      1        6          -0.008874407    0.005054754    0.003785118
      2        6          -0.008876089   -0.006346173   -0.008601811
      3        6           0.005388831   -0.004991735   -0.006887202
      4        6          -0.003007971   -0.005024902    0.006537657
      5        6          -0.001184167    0.005077776    0.001211002
      6        6           0.007216719   -0.005290211   -0.000504145
      7        6           0.023431596    0.016241859   -0.009056255
      8        6          -0.024980450   -0.009896448    0.000538710
      9        6           0.030633311    0.000575948    0.005557452
     10        6          -0.017303573   -0.000294658    0.007524265
     11        6           0.007572988    0.005261950   -0.006984250
     12        1          -0.000208964    0.001245543    0.001174264
     13        1          -0.001852249    0.002251518   -0.000459701
     14        1          -0.001694368   -0.001979492   -0.000329234
     15        1          -0.001374057    0.000485098   -0.001488128
     16        1           0.003533185    0.000173433    0.001826494
     17        1           0.003953174    0.001891729    0.001166039
     18        1           0.002059849   -0.001124629    0.000214176
     19        1           0.002972309   -0.000054266    0.002260576
     20        1           0.000842388    0.000141872    0.000854426
     21        1          -0.001295497   -0.002011337    0.000878098
     22        1          -0.005045254    0.002105022   -0.002907101
     23        1          -0.001791164   -0.002780159   -0.002661254
     24        1          -0.002343371    0.004249247    0.005440945
     25        1          -0.002013188   -0.004584179    0.003287666
     26        1          -0.002121938   -0.003748589   -0.003370856
     27        1          -0.001741250    0.001996823    0.002813109
     28        1           0.000900127    0.001450837   -0.000209173
     29        1          -0.002796517   -0.000076630   -0.001610888
 -------------------------------------------------------------------
 Cartesian Forces:  Max     0.030633311 RMS     0.006751883

 GradGradGradGradGradGradGradGradGradGradGradGradGradGradGradGradGradGrad
 Berny optimization.
 FormGI is forming the generalized inverse of G from B-inverse, IUseBI=4.
 Internal  Forces:  Max     0.014843010 RMS     0.002793711
 Search for a local minimum.
 Step number   1 out of a maximum of  174
 All quantities printed in internal units (Hartrees-Bohrs-Radians)
 Mixed Optimization -- RFO/linear search
 Second derivative matrix not updated -- first step.
 ITU=  0
     Eigenvalues ---    0.00318   0.00346   0.00590   0.00838   0.01611
     Eigenvalues ---    0.02029   0.02043   0.02340   0.02430   0.02642
     Eigenvalues ---    0.02913   0.03242   0.03335   0.03754   0.04153
     Eigenvalues ---    0.04236   0.04251   0.04324   0.04787   0.04930
     Eigenvalues ---    0.04986   0.05105   0.05134   0.05212   0.05357
     Eigenvalues ---    0.05403   0.05530   0.06025   0.06319   0.06522
     Eigenvalues ---    0.06929   0.07007   0.07022   0.07351   0.07434
     Eigenvalues ---    0.07892   0.08098   0.08146   0.08233   0.08676
     Eigenvalues ---    0.08855   0.09153   0.09334   0.09788   0.10138
     Eigenvalues ---    0.10269   0.11327   0.12392   0.17102   0.20253
     Eigenvalues ---    0.20873   0.22551   0.23393   0.24704   0.25981
     Eigenvalues ---    0.26409   0.26435   0.27190   0.27825   0.28153
     Eigenvalues ---    0.29133   0.29487   0.29658   0.33917   0.33919
     Eigenvalues ---    0.33920   0.33973   0.33981   0.34039   0.34087
     Eigenvalues ---    0.34094   0.34105   0.34123   0.34270   0.34271
     Eigenvalues ---    0.34283   0.34308   0.34313   0.34356   0.34422
     Eigenvalues ---    0.34789
 RFO step:  Lambda=-1.31884623D-02 EMin= 3.18080308D-03
 Linear search not attempted -- first point.
 Iteration  1 RMS(Cart)=  0.03352716 RMS(Int)=  0.00098250
 Iteration  2 RMS(Cart)=  0.00113570 RMS(Int)=  0.00053683
 Iteration  3 RMS(Cart)=  0.00000069 RMS(Int)=  0.00053683
 Variable       Old X    -DE/DX   Delta X   Delta X   Delta X     New X
                                 (Linear)    (Quad)   (Total)
    R1        2.87245   0.01314   0.00000   0.04536   0.04541   2.91786
    R2        2.87053   0.00900   0.00000   0.02877   0.02879   2.89931
    R3        2.07124   0.00050   0.00000   0.00142   0.00142   2.07265
    R4        2.06734   0.00113   0.00000   0.00316   0.00316   2.07049
    R5        2.89706   0.01484   0.00000   0.05051   0.05050   2.94757
    R6        2.06856   0.00044   0.00000   0.00124   0.00124   2.06980
    R7        2.07183  -0.00023   0.00000  -0.00064  -0.00064   2.07120
    R8        2.93568   0.00511   0.00000   0.01464   0.01459   2.95027
    R9        2.06875  -0.00023   0.00000  -0.00065  -0.00065   2.06810
   R10        2.07172  -0.00061   0.00000  -0.00172  -0.00172   2.07000
   R11        2.91458   0.00369   0.00000   0.00919   0.00918   2.92376
   R12        2.94531  -0.00058   0.00000   0.00633   0.00564   2.95095
   R13        2.93140   0.00175   0.00000   0.01508   0.01442   2.94582
   R14        2.07467   0.00071   0.00000   0.00200   0.00200   2.07667
   R15        2.06878   0.00124   0.00000   0.00349   0.00349   2.07227
   R16        2.89857  -0.00306   0.00000  -0.01212  -0.01204   2.88653
   R17        2.07376   0.00034   0.00000   0.00097   0.00097   2.07473
   R18        2.07264  -0.00028   0.00000  -0.00079  -0.00079   2.07185
   R19        2.94559   0.00010   0.00000  -0.00221  -0.00172   2.94387
   R20        2.93757   0.00167   0.00000   0.00055   0.00043   2.93801
   R21        2.06814   0.00210   0.00000   0.00589   0.00589   2.07403
   R22        2.94035   0.00021   0.00000  -0.00145  -0.00075   2.93960
   R23        2.06019   0.00422   0.00000   0.01169   0.01169   2.07188
   R24        2.07464  -0.00380   0.00000  -0.01079  -0.01079   2.06386
   R25        2.93680   0.00137   0.00000   0.00068   0.00073   2.93753
   R26        2.89469  -0.00314   0.00000  -0.01131  -0.01116   2.88353
   R27        2.06805   0.00228   0.00000   0.00639   0.00639   2.07444
   R28        2.07362  -0.00281   0.00000  -0.00795  -0.00795   2.06567
   R29        2.06624   0.00386   0.00000   0.01080   0.01080   2.07704
   R30        2.07470   0.00025   0.00000   0.00070   0.00070   2.07541
   R31        2.07153   0.00011   0.00000   0.00032   0.00032   2.07185
    A1        1.81247  -0.00104   0.00000  -0.00212  -0.00217   1.81030
    A2        1.92375   0.00112   0.00000   0.00621   0.00621   1.92996
    A3        1.95809   0.00078   0.00000   0.01141   0.01132   1.96941
    A4        1.92909  -0.00119   0.00000  -0.01339  -0.01335   1.91574
    A5        1.96009   0.00148   0.00000   0.01151   0.01145   1.97154
    A6        1.88067  -0.00111   0.00000  -0.01317  -0.01316   1.86751
    A7        1.85687  -0.00317   0.00000  -0.00873  -0.00870   1.84818
    A8        1.94395   0.00132   0.00000   0.00912   0.00914   1.95309
    A9        1.92450   0.00072   0.00000  -0.00154  -0.00154   1.92295
   A10        1.95291   0.00165   0.00000   0.00959   0.00957   1.96247
   A11        1.91238   0.00134   0.00000   0.00880   0.00880   1.92117
   A12        1.87375  -0.00176   0.00000  -0.01676  -0.01675   1.85699
   A13        1.86777   0.00146   0.00000   0.00157   0.00171   1.86947
   A14        1.92035   0.00171   0.00000   0.02556   0.02549   1.94584
   A15        1.89665   0.00211   0.00000   0.03042   0.03040   1.92705
   A16        1.96806  -0.00196   0.00000  -0.02026  -0.02047   1.94759
   A17        1.94942  -0.00304   0.00000  -0.02709  -0.02725   1.92217
   A18        1.86108  -0.00009   0.00000  -0.00736  -0.00847   1.85261
   A19        1.77104   0.00061   0.00000   0.00705   0.00679   1.77784
   A20        1.92007  -0.00016   0.00000  -0.01551  -0.01552   1.90455
   A21        1.95630   0.00086   0.00000   0.00965   0.00941   1.96571
   A22        1.93293  -0.00005   0.00000  -0.00422  -0.00396   1.92897
   A23        1.92443   0.00140   0.00000   0.01491   0.01500   1.93944
   A24        1.95154  -0.00234   0.00000  -0.01025  -0.01043   1.94111
   A25        1.81977   0.00297   0.00000   0.00996   0.01004   1.82981
   A26        1.90945   0.00054   0.00000   0.00792   0.00792   1.91737
   A27        1.95379   0.00057   0.00000   0.02340   0.02347   1.97726
   A28        1.93023  -0.00219   0.00000  -0.02137  -0.02148   1.90875
   A29        1.97267  -0.00212   0.00000  -0.01362  -0.01397   1.95870
   A30        1.87782   0.00027   0.00000  -0.00568  -0.00614   1.87168
   A31        1.94684   0.00298   0.00000   0.01493   0.01477   1.96161
   A32        1.93016  -0.00051   0.00000  -0.00217  -0.00184   1.92832
   A33        1.93391  -0.00266   0.00000  -0.02084  -0.02113   1.91278
   A34        1.89081  -0.00156   0.00000  -0.00699  -0.00710   1.88370
   A35        1.90786   0.00063   0.00000   0.00845   0.00880   1.91666
   A36        1.85132   0.00104   0.00000   0.00650   0.00642   1.85774
   A37        2.02306  -0.00683   0.00000  -0.07419  -0.07361   1.94945
   A38        1.94336  -0.00371   0.00000  -0.04141  -0.04049   1.90287
   A39        1.95916   0.00022   0.00000  -0.00249  -0.00212   1.95704
   A40        1.48742   0.00195   0.00000   0.02925   0.02542   1.51283
   A41        2.01077   0.00475   0.00000   0.04516   0.04364   2.05441
   A42        1.99431   0.00388   0.00000   0.05038   0.04937   2.04367
   A43        1.47379   0.00346   0.00000   0.03189   0.03028   1.50407
   A44        2.06049   0.00176   0.00000   0.01806   0.01779   2.07829
   A45        1.98969  -0.00535   0.00000  -0.04746  -0.04736   1.94233
   A46        2.04978   0.00209   0.00000   0.02150   0.02135   2.07114
   A47        1.99021  -0.00540   0.00000  -0.04533  -0.04518   1.94504
   A48        1.87979   0.00268   0.00000   0.01691   0.01716   1.89695
   A49        1.48930   0.00201   0.00000   0.02903   0.02506   1.51436
   A50        2.01721  -0.00720   0.00000  -0.07819  -0.07769   1.93952
   A51        2.01124   0.00476   0.00000   0.04657   0.04508   2.05632
   A52        1.94507  -0.00412   0.00000  -0.04469  -0.04391   1.90116
   A53        1.99524   0.00392   0.00000   0.05045   0.04940   2.04464
   A54        1.96029   0.00070   0.00000   0.00165   0.00217   1.96246
   A55        1.47736   0.00262   0.00000   0.03049   0.02923   1.50660
   A56        1.99518  -0.00404   0.00000  -0.03670  -0.03650   1.95868
   A57        2.04211   0.00135   0.00000   0.01230   0.01227   2.05438
   A58        1.99446  -0.00407   0.00000  -0.03596  -0.03574   1.95872
   A59        2.04128   0.00152   0.00000   0.01416   0.01419   2.05547
   A60        1.89081   0.00210   0.00000   0.01361   0.01362   1.90444
   A61        1.95504   0.00299   0.00000   0.01708   0.01701   1.97205
   A62        1.92246  -0.00036   0.00000  -0.00125  -0.00093   1.92153
   A63        1.93322  -0.00307   0.00000  -0.02548  -0.02580   1.90742
   A64        1.88978  -0.00183   0.00000  -0.01073  -0.01082   1.87896
   A65        1.91174   0.00094   0.00000   0.01081   0.01113   1.92286
   A66        1.84808   0.00125   0.00000   0.00942   0.00936   1.85743
    D1       -0.42196   0.00139   0.00000   0.01161   0.01160  -0.41036
    D2       -2.55437   0.00064   0.00000   0.00009   0.00008  -2.55429
    D3        1.65042   0.00152   0.00000   0.01621   0.01621   1.66664
    D4        1.64460  -0.00004   0.00000  -0.00222  -0.00224   1.64236
    D5       -0.48782  -0.00079   0.00000  -0.01375  -0.01376  -0.50158
    D6       -2.56621   0.00010   0.00000   0.00237   0.00238  -2.56383
    D7       -2.54277  -0.00017   0.00000  -0.00710  -0.00712  -2.54989
    D8        1.60800  -0.00092   0.00000  -0.01862  -0.01863   1.58936
    D9       -0.47039  -0.00003   0.00000  -0.00250  -0.00250  -0.47289
   D10        0.69967  -0.00036   0.00000  -0.00906  -0.00906   0.69061
   D11       -1.36534   0.00033   0.00000   0.00666   0.00673  -1.35861
   D12        2.83799  -0.00071   0.00000  -0.00616  -0.00608   2.83191
   D13       -1.36320  -0.00052   0.00000  -0.00872  -0.00878  -1.37198
   D14        2.85497   0.00017   0.00000   0.00700   0.00701   2.86198
   D15        0.77511  -0.00087   0.00000  -0.00582  -0.00580   0.76932
   D16        2.81915   0.00072   0.00000   0.00960   0.00957   2.82873
   D17        0.75414   0.00141   0.00000   0.02532   0.02537   0.77951
   D18       -1.32571   0.00037   0.00000   0.01250   0.01255  -1.31316
   D19       -0.00735   0.00026   0.00000  -0.00354  -0.00358  -0.01093
   D20       -2.15120   0.00070   0.00000   0.00490   0.00501  -2.14619
   D21        2.10030  -0.00136   0.00000  -0.01801  -0.01818   2.08212
   D22        2.11939   0.00078   0.00000   0.00768   0.00765   2.12704
   D23       -0.02447   0.00123   0.00000   0.01611   0.01625  -0.00822
   D24       -2.05615  -0.00084   0.00000  -0.00680  -0.00695  -2.06310
   D25       -2.08766   0.00050   0.00000  -0.00143  -0.00144  -2.08910
   D26        2.05167   0.00095   0.00000   0.00701   0.00716   2.05883
   D27        0.01999  -0.00112   0.00000  -0.01590  -0.01604   0.00395
   D28        0.42272  -0.00076   0.00000  -0.00177  -0.00177   0.42095
   D29       -1.62455  -0.00094   0.00000   0.00589   0.00573  -1.61881
   D30        2.47571   0.00160   0.00000   0.02385   0.02408   2.49978
   D31        2.53662   0.00116   0.00000   0.01873   0.01849   2.55511
   D32        0.48936   0.00097   0.00000   0.02638   0.02599   0.51535
   D33       -1.69357   0.00352   0.00000   0.04435   0.04433  -1.64924
   D34       -1.65105  -0.00250   0.00000  -0.02438  -0.02418  -1.67523
   D35        2.58487  -0.00269   0.00000  -0.01672  -0.01667   2.56820
   D36        0.40194  -0.00015   0.00000   0.00124   0.00167   0.40361
   D37       -0.68810   0.00003   0.00000   0.00327   0.00335  -0.68475
   D38        1.36263   0.00126   0.00000   0.00778   0.00771   1.37035
   D39       -2.81399  -0.00142   0.00000  -0.02424  -0.02404  -2.83802
   D40        1.34981   0.00015   0.00000  -0.01259  -0.01255   1.33725
   D41       -2.88265   0.00137   0.00000  -0.00808  -0.00819  -2.89084
   D42       -0.77608  -0.00131   0.00000  -0.04010  -0.03994  -0.81602
   D43       -2.76403  -0.00190   0.00000  -0.01811  -0.01809  -2.78212
   D44       -0.71330  -0.00067   0.00000  -0.01360  -0.01373  -0.72703
   D45        1.39327  -0.00335   0.00000  -0.04562  -0.04548   1.34779
   D46       -1.71654   0.00011   0.00000   0.00675   0.00664  -1.70990
   D47        2.46111   0.00044   0.00000   0.00707   0.00699   2.46810
   D48        0.41331   0.00112   0.00000   0.01329   0.01310   0.42641
   D49        2.62291  -0.00050   0.00000   0.00910   0.00906   2.63197
   D50        0.51738  -0.00018   0.00000   0.00942   0.00941   0.52679
   D51       -1.53042   0.00050   0.00000   0.01564   0.01552  -1.51490
   D52        0.46911  -0.00059   0.00000   0.00024   0.00001   0.46913
   D53       -1.63642  -0.00026   0.00000   0.00057   0.00036  -1.63606
   D54        2.59897   0.00041   0.00000   0.00679   0.00647   2.60544
   D55        1.69911  -0.00082   0.00000  -0.02149  -0.02159   1.67751
   D56       -2.47964  -0.00139   0.00000  -0.02458  -0.02463  -2.50427
   D57       -0.44099  -0.00193   0.00000  -0.02914  -0.02908  -0.47008
   D58       -2.62497   0.00124   0.00000   0.00133   0.00134  -2.62362
   D59       -0.52053   0.00067   0.00000  -0.00176  -0.00169  -0.52222
   D60        1.51812   0.00013   0.00000  -0.00632  -0.00615   1.51197
   D61       -0.46637   0.00052   0.00000  -0.00056  -0.00036  -0.46673
   D62        1.63807  -0.00005   0.00000  -0.00365  -0.00340   1.63467
   D63       -2.60647  -0.00059   0.00000  -0.00821  -0.00785  -2.61432
   D64        0.56179  -0.00125   0.00000  -0.00748  -0.00812   0.55367
   D65       -1.09960   0.00134   0.00000   0.01165   0.01116  -1.08844
   D66        2.92267  -0.00100   0.00000  -0.02000  -0.01996   2.90271
   D67        2.69021  -0.00104   0.00000  -0.00538  -0.00583   2.68437
   D68        1.02882   0.00155   0.00000   0.01374   0.01345   1.04227
   D69       -1.23210  -0.00078   0.00000  -0.01790  -0.01767  -1.24977
   D70       -1.58301  -0.00032   0.00000   0.00302   0.00257  -1.58045
   D71        3.03878   0.00228   0.00000   0.02214   0.02185   3.06063
   D72        0.77786  -0.00006   0.00000  -0.00950  -0.00927   0.76860
   D73       -1.36657  -0.00373   0.00000  -0.05295  -0.05373  -1.42031
   D74        0.69675   0.00088   0.00000  -0.00750  -0.00763   0.68913
   D75        2.92933   0.00115   0.00000  -0.01301  -0.01321   2.91612
   D76        0.57839  -0.00761   0.00000  -0.09236  -0.09334   0.48506
   D77        2.64172  -0.00300   0.00000  -0.04691  -0.04723   2.59449
   D78       -1.40889  -0.00273   0.00000  -0.05242  -0.05282  -1.46170
   D79        2.57874  -0.00177   0.00000  -0.01672  -0.01672   2.56203
   D80       -1.64112   0.00284   0.00000   0.02873   0.02939  -1.61173
   D81        0.59146   0.00311   0.00000   0.02322   0.02380   0.61527
   D82        1.44540   0.00087   0.00000   0.02029   0.02088   1.46628
   D83       -2.84370  -0.00283   0.00000  -0.00921  -0.00915  -2.85285
   D84       -0.60708  -0.00245   0.00000  -0.01378  -0.01365  -0.62073
   D85       -0.57896   0.00782   0.00000   0.09279   0.09362  -0.48534
   D86        1.41513   0.00412   0.00000   0.06329   0.06359   1.47872
   D87       -2.63143   0.00450   0.00000   0.05871   0.05909  -2.57235
   D88       -2.59552   0.00121   0.00000   0.02331   0.02328  -2.57224
   D89       -0.60144  -0.00249   0.00000  -0.00620  -0.00674  -0.60818
   D90        1.63519  -0.00211   0.00000  -0.01077  -0.01125   1.62394
   D91       -0.57847   0.00755   0.00000   0.09236   0.09337  -0.48510
   D92        1.36873   0.00320   0.00000   0.04868   0.04956   1.41828
   D93       -2.58082   0.00161   0.00000   0.01633   0.01633  -2.56449
   D94       -2.65216   0.00331   0.00000   0.05082   0.05108  -2.60108
   D95       -0.70497  -0.00103   0.00000   0.00714   0.00727  -0.69770
   D96        1.62867  -0.00263   0.00000  -0.02521  -0.02595   1.60272
   D97        1.40828   0.00272   0.00000   0.05028   0.05069   1.45897
   D98       -2.92771  -0.00162   0.00000   0.00661   0.00688  -2.92084
   D99       -0.59407  -0.00322   0.00000  -0.02575  -0.02635  -0.62042
   D100       0.58002  -0.00787   0.00000  -0.09312  -0.09396   0.48606
   D101      -1.41478  -0.00419   0.00000  -0.06287  -0.06318  -1.47796
   D102       2.63330  -0.00472   0.00000  -0.06090  -0.06125   2.57205
   D103      -1.43893  -0.00049   0.00000  -0.01589  -0.01650  -1.45543
   D104       2.84946   0.00318   0.00000   0.01437   0.01428   2.86374
   D105       0.61435   0.00266   0.00000   0.01634   0.01621   0.63056
   D106       2.59809  -0.00118   0.00000  -0.02190  -0.02187   2.57622
   D107       0.60329   0.00249   0.00000   0.00835   0.00891   0.61220
   D108      -1.63182   0.00196   0.00000   0.01032   0.01084  -1.62098
   D109      -0.57041   0.00137   0.00000   0.00846   0.00888  -0.56153
   D110      -2.69372   0.00115   0.00000   0.00642   0.00665  -2.68707
   D111       1.58184   0.00018   0.00000  -0.00463  -0.00437   1.57747
   D112       1.09155  -0.00151   0.00000  -0.01428  -0.01365   1.07790
   D113      -1.03176  -0.00173   0.00000  -0.01633  -0.01588  -1.04764
   D114      -3.03938  -0.00271   0.00000  -0.02737  -0.02690  -3.06629
   D115      -2.92701   0.00094   0.00000   0.01811   0.01807  -2.90894
   D116       1.23287   0.00072   0.00000   0.01606   0.01583   1.24870
   D117      -0.77476  -0.00026   0.00000   0.00502   0.00481  -0.76994
         Item               Value     Threshold  Converged?
 Maximum Force            0.014843     0.000450     NO 
 RMS     Force            0.002794     0.000300     NO 
 Maximum Displacement     0.226425     0.001800     NO 
 RMS     Displacement     0.033602     0.001200     NO 
 Predicted change in Energy=-7.675140D-03
 GradGradGradGradGradGradGradGradGradGradGradGradGradGradGradGradGradGrad

                          Input orientation:                          
 ---------------------------------------------------------------------
 Center     Atomic      Atomic             Coordinates (Angstroms)
 Number     Number       Type             X           Y           Z
 ---------------------------------------------------------------------
      1          6           0       -2.631042    0.307108    0.146948
      2          6           0       -2.277223   -0.838277   -0.826213
      3          6           0       -0.730902   -1.018510   -0.729582
      4          6           0       -0.207794    0.040913    0.290897
      5          6           0       -1.468276    0.306485    1.147898
      6          6           0        0.211053    1.331887   -0.481423
      7          6           0        1.715139    1.392590   -0.740771
      8          6           0        2.325164   -0.028631   -0.927405
      9          6           0        2.337889   -0.113443    0.625795
     10          6           0        2.463025    1.435978    0.621565
     11          6           0        0.963836   -0.497584    1.166886
     12          1           0       -2.663780    1.266879   -0.382898
     13          1           0       -3.607247    0.172042    0.625744
     14          1           0       -2.610214   -0.624260   -1.847474
     15          1           0       -2.783325   -1.761940   -0.522916
     16          1           0       -0.252340   -0.906353   -1.707384
     17          1           0       -0.484840   -2.028437   -0.384046
     18          1           0       -1.597375   -0.512195    1.869516
     19          1           0       -1.390523    1.237121    1.722697
     20          1           0       -0.070311    2.228016    0.087054
     21          1           0       -0.332459    1.384193   -1.432160
     22          1           0        1.976662    2.161211   -1.479278
     23          1           0        1.760601   -0.781038   -1.490630
     24          1           0        3.337942    0.024689   -1.332649
     25          1           0        3.148914   -0.680188    1.101275
     26          1           0        3.499287    1.766831    0.513982
     27          1           0        1.991996    1.990042    1.445709
     28          1           0        0.884992   -0.100636    2.187859
     29          1           0        0.881823   -1.587653    1.250924
 ---------------------------------------------------------------------
                    Distance matrix (angstroms):
                    1          2          3          4          5
     1  C    0.000000
     2  C    1.544065   0.000000
     3  C    2.477115   1.559785   0.000000
     4  C    2.442071   2.510666   1.561216   0.000000
     5  C    1.534251   2.421155   2.413351   1.547189   0.000000
[...]
   194    C    9  dxy    Ryd( 3d)     0.00025       2.10405
   195    C    9  dxz    Ryd( 3d)     0.00042       2.34479
   196    C    9  dyz    Ryd( 3d)     0.00041       2.14165
   197    C    9  dx2y2  Ryd( 3d)     0.00046       2.40541
   198    C    9  dz2    Ryd( 3d)     0.00050       2.38806
 
   199    C   10  S      Cor( 1S)     0.99962      -9.91115
   200    C   10  S      Val( 2S)     0.51297      -0.11416
   201    C   10  S      Ryd( 4S)     0.00077       2.33480
   202    C   10  S      Ryd( 3S)     0.00052       1.73934
   203    C   10  S      Ryd( 5S)     0.00006      14.67579
   204    C   10  px     Val( 2p)     0.58629       0.03614
   205    C   10  px     Ryd( 3p)     0.00213       1.22493
   206    C   10  px     Ryd( 4p)     0.00031       2.01015
   207    C   10  px     Ryd( 5p)     0.00002       2.98602
   208    C   10  py     Val( 2p)     0.55358       0.03948
   209    C   10  py     Ryd( 3p)     0.00175       1.33423
   210    C   10  py     Ryd( 4p)     0.00033       2.81118
   211    C   10  py     Ryd( 5p)     0.00003       2.86400
   212    C   10  pz     Val( 2p)     0.52433       0.03338
   213    C   10  pz     Ryd( 3p)     0.00100       1.10365
   214    C   10  pz     Ryd( 4p)     0.00020       2.12741
   215    C   10  pz     Ryd( 5p)     0.00003       2.78903
   216    C   10  dxy    Ryd( 3d)     0.00031       2.28709
   217    C   10  dxz    Ryd( 3d)     0.00020       2.05683
   218    C   10  dyz    Ryd( 3d)     0.00042       2.14086
   219    C   10  dx2y2  Ryd( 3d)     0.00057       2.35310
   220    C   10  dz2    Ryd( 3d)     0.00045       2.31019
 
   221    C   11  S      Cor( 1S)     0.99958      -9.90562
   222    C   11  S      Val( 2S)     0.49917      -0.09935
   223    C   11  S      Ryd( 3S)     0.00072       2.16109
   224    C   11  S      Ryd( 4S)     0.00075       3.97336
   225    C   11  S      Ryd( 5S)     0.00005      11.76703
   226    C   11  px     Val( 2p)     0.51534       0.04439
   227    C   11  px     Ryd( 3p)     0.00144       1.11760
   228    C   11  px     Ryd( 4p)     0.00026       2.86077
   229    C   11  px     Ryd( 5p)     0.00002       3.05310
   230    C   11  py     Val( 2p)     0.58275       0.03456
   231    C   11  py     Ryd( 3p)     0.00214       1.00527
   232    C   11  py     Ryd( 4p)     0.00030       3.06810
   233    C   11  py     Ryd( 5p)     0.00001       3.15654
   234    C   11  pz     Val( 2p)     0.57610       0.03556
   235    C   11  pz     Ryd( 3p)     0.00241       1.05677
   236    C   11  pz     Ryd( 5p)     0.00034       3.53911
   237    C   11  pz     Ryd( 4p)     0.00001       3.13264
   238    C   11  dxy    Ryd( 3d)     0.00031       2.16366
   239    C   11  dxz    Ryd( 3d)     0.00037       2.30205
   240    C   11  dyz    Ryd( 3d)     0.00015       2.11091
   241    C   11  dx2y2  Ryd( 3d)     0.00057       2.41526
   242    C   11  dz2    Ryd( 3d)     0.00059       2.37185
 
   243    H   12  S      Val( 1S)     0.40256       0.15184
   244    H   12  S      Ryd( 2S)     0.00062       0.47352
   245    H   12  S      Ryd( 4S)     0.00034       1.85984
   246    H   12  S      Ryd( 3S)     0.00001       1.11106
   247    H   12  px     Ryd( 2p)     0.00008       2.04495
   248    H   12  py     Ryd( 2p)     0.00009       1.93102
   249    H   12  pz     Ryd( 2p)     0.00017       2.96741
 
   250    H   13  S      Val( 1S)     0.40041       0.15261
   251    H   13  S      Ryd( 2S)     0.00050       0.41576
   252    H   13  S      Ryd( 4S)     0.00026       1.80706
   253    H   13  S      Ryd( 3S)     0.00001       1.06627
   254    H   13  px     Ryd( 2p)     0.00016       2.74324
   255    H   13  py     Ryd( 2p)     0.00012       2.09966
   256    H   13  pz     Ryd( 2p)     0.00007       2.04075
 
   257    H   14  S      Val( 1S)     0.40260       0.15225
   258    H   14  S      Ryd( 2S)     0.00048       0.49017
   259    H   14  S      Ryd( 4S)     0.00033       1.78242
   260    H   14  S      Ryd( 3S)     0.00001       1.12871
   261    H   14  px     Ryd( 2p)     0.00008       2.00880
   262    H   14  py     Ryd( 2p)     0.00013       2.56692
   263    H   14  pz     Ryd( 2p)     0.00012       2.36467
 
   264    H   15  S      Val( 1S)     0.40052       0.15239
   265    H   15  S      Ryd( 2S)     0.00052       0.43407
   266    H   15  S      Ryd( 4S)     0.00028       1.77762
   267    H   15  S      Ryd( 3S)     0.00001       1.09079
   268    H   15  px     Ryd( 2p)     0.00014       2.51007
   269    H   15  py     Ryd( 2p)     0.00008       2.03262
   270    H   15  pz     Ryd( 2p)     0.00013       2.31696
 
   271    H   16  S      Val( 1S)     0.39849       0.15976
   272    H   16  S      Ryd( 2S)     0.00062       0.64728
   273    H   16  S      Ryd( 4S)     0.00033       1.80786
   274    H   16  S      Ryd( 3S)     0.00001       0.91914
   275    H   16  px     Ryd( 2p)     0.00009       2.15184
   276    H   16  py     Ryd( 2p)     0.00014       2.69968
   277    H   16  pz     Ryd( 2p)     0.00005       2.04264
 
   278    H   17  S      Val( 1S)     0.40293       0.15386
   279    H   17  S      Ryd( 2S)     0.00065       0.52255
   280    H   17  S      Ryd( 4S)     0.00042       1.71952
   281    H   17  S      Ryd( 3S)     0.00001       1.18015
   282    H   17  px     Ryd( 2p)     0.00008       2.01270
   283    H   17  py     Ryd( 2p)     0.00006       2.11607
   284    H   17  pz     Ryd( 2p)     0.00013       2.84831
 
   285    H   18  S      Val( 1S)     0.40304       0.15111
   286    H   18  S      Ryd( 2S)     0.00063       0.44836
   287    H   18  S      Ryd( 4S)     0.00040       1.78457
   288    H   18  S      Ryd( 3S)     0.00001       1.16749
   289    H   18  px     Ryd( 2p)     0.00006       2.01844
   290    H   18  py     Ryd( 2p)     0.00007       2.31826
   291    H   18  pz     Ryd( 2p)     0.00011       2.55133
 
   292    H   19  S      Val( 1S)     0.39890       0.15597
   293    H   19  S      Ryd( 2S)     0.00044       0.52902
   294    H   19  S      Ryd( 4S)     0.00033       1.77013
   295    H   19  S      Ryd( 3S)     0.00001       1.05674
   296    H   19  px     Ryd( 2p)     0.00007       2.01502
   297    H   19  py     Ryd( 2p)     0.00009       2.45193
   298    H   19  pz     Ryd( 2p)     0.00009       2.33086
 
   299    H   20  S      Val( 1S)     0.40042       0.15586
   300    H   20  S      Ryd( 2S)     0.00083       0.52535
   301    H   20  S      Ryd( 4S)     0.00041       1.83155
   302    H   20  S      Ryd( 3S)     0.00001       1.08063
   303    H   20  px     Ryd( 2p)     0.00007       2.09424
   304    H   20  py     Ryd( 2p)     0.00008       2.34153
   305    H   20  pz     Ryd( 2p)     0.00010       2.58203
 
   306    H   21  S      Val( 1S)     0.39816       0.15962
   307    H   21  S      Ryd( 2S)     0.00100       0.58249
   308    H   21  S      Ryd( 4S)     0.00039       1.76112
   309    H   21  S      Ryd( 3S)     0.00001       1.05646
   310    H   21  px     Ryd( 2p)     0.00009       2.20572
   311    H   21  py     Ryd( 2p)     0.00011       2.63538
   312    H   21  pz     Ryd( 2p)     0.00006       2.10808
 
   313    H   22  S      Val( 1S)     0.40226       0.16142
   314    H   22  S      Ryd( 2S)     0.00090       0.37354
   315    H   22  S      Ryd( 4S)     0.00028       1.88728
   316    H   22  S      Ryd( 3S)     0.00002       1.06695
   317    H   22  px     Ryd( 2p)     0.00009       2.11967
   318    H   22  py     Ryd( 2p)     0.00011       2.21097
   319    H   22  pz     Ryd( 2p)     0.00014       2.62245
 
   320    H   23  S      Val( 1S)     0.40395       0.15704
   321    H   23  S      Ryd( 2S)     0.00054       0.55437
   322    H   23  S      Ryd( 4S)     0.00033       1.71147
   323    H   23  S      Ryd( 3S)     0.00001       1.03551
   324    H   23  px     Ryd( 2p)     0.00011       2.28011
   325    H   23  py     Ryd( 2p)     0.00009       2.35488
   326    H   23  pz     Ryd( 2p)     0.00008       2.07285
 
   327    H   24  S      Val( 1S)     0.39737       0.15542
   328    H   24  S      Ryd( 2S)     0.00113       0.39365
   329    H   24  S      Ryd( 4S)     0.00036       1.58286
   330    H   24  S      Ryd( 3S)     0.00002       1.29667
   331    H   24  px     Ryd( 2p)     0.00015       2.67177
   332    H   24  py     Ryd( 2p)     0.00005       2.16993
   333    H   24  pz     Ryd( 2p)     0.00008       1.88283
 
   334    H   25  S      Val( 1S)     0.40305       0.16011
   335    H   25  S      Ryd( 2S)     0.00074       0.38006
   336    H   25  S      Ryd( 4S)     0.00027       1.86953
   337    H   25  S      Ryd( 3S)     0.00001       1.07260
   338    H   25  px     Ryd( 2p)     0.00014       2.39539
   339    H   25  py     Ryd( 2p)     0.00009       2.04773
   340    H   25  pz     Ryd( 2p)     0.00013       2.51751
 
   341    H   26  S      Val( 1S)     0.39786       0.15453
   342    H   26  S      Ryd( 2S)     0.00109       0.40088
   343    H   26  S      Ryd( 4S)     0.00034       1.59958
   344    H   26  S      Ryd( 3S)     0.00001       1.27624
   345    H   26  px     Ryd( 2p)     0.00015       2.80557
   346    H   26  py     Ryd( 2p)     0.00005       1.99699
   347    H   26  pz     Ryd( 2p)     0.00008       1.92127
 
   348    H   27  S      Val( 1S)     0.40638       0.15029
   349    H   27  S      Ryd( 2S)     0.00060       0.47408
   350    H   27  S      Ryd( 4S)     0.00031       1.75909
   351    H   27  S      Ryd( 3S)     0.00001       1.11308
   352    H   27  px     Ryd( 2p)     0.00007       2.10082
   353    H   27  py     Ryd( 2p)     0.00013       2.60229
   354    H   27  pz     Ryd( 2p)     0.00007       2.03649
 
   355    H   28  S      Val( 1S)     0.40127       0.15375
   356    H   28  S      Ryd( 2S)     0.00079       0.46227
   357    H   28  S      Ryd( 4S)     0.00035       1.73926
   358    H   28  S      Ryd( 3S)     0.00001       1.21027
   359    H   28  px     Ryd( 2p)     0.00007       2.00276
   360    H   28  py     Ryd( 2p)     0.00013       2.87025
   361    H   28  pz     Ryd( 2p)     0.00006       2.06466
 
   362    H   29  S      Val( 1S)     0.39910       0.15558
   363    H   29  S      Ryd( 2S)     0.00069       0.54604
   364    H   29  S      Ryd( 4S)     0.00041       1.62777
   365    H   29  S      Ryd( 3S)     0.00001       1.23450
   366    H   29  px     Ryd( 2p)     0.00007       2.03520
   367    H   29  py     Ryd( 2p)     0.00006       2.05898
   368    H   29  pz     Ryd( 2p)     0.00013       2.78944

 WARNING:  Population inversion found on atom  C    1
           Population inversion found on atom  C    2
           Population inversion found on atom  C    3
           Population inversion found on atom  C    4
           Population inversion found on atom  C    5
           Population inversion found on atom  C    6
           Population inversion found on atom  C    7
           Population inversion found on atom  C    8
           Population inversion found on atom  C    9
           Population inversion found on atom  C   10
           Population inversion found on atom  C   11
           Population inversion found on atom  H   12
           Population inversion found on atom  H   13
           Population inversion found on atom  H   14
           Population inversion found on atom  H   15
           Population inversion found on atom  H   16
           Population inversion found on atom  H   17
           Population inversion found on atom  H   18
           Population inversion found on atom  H   19
           Population inversion found on atom  H   20
           Population inversion found on atom  H   21
           Population inversion found on atom  H   22
           Population inversion found on atom  H   23
           Population inversion found on atom  H   24
           Population inversion found on atom  H   25
           Population inversion found on atom  H   26
           Population inversion found on atom  H   27
           Population inversion found on atom  H   28
           Population inversion found on atom  H   29


 Summary of Natural Population Analysis:                  
                                                          
                                       Natural Population 
                Natural  -----------------------------------------------
    Atom  No    Charge         Core      Valence    Rydberg      Total
 -----------------------------------------------------------------------
      C    1   -0.19432      0.99964     2.18699    0.00768     3.19432
      C    2   -0.19453      0.99965     2.18726    0.00762     3.19453
      C    3   -0.18594      0.99959     2.17764    0.00871     3.18594
      C    4   -0.04113      0.99956     2.02833    0.01324     3.04113
      C    5   -0.18415      0.99959     2.17497    0.00959     3.18415
      C    6   -0.18705      0.99958     2.17685    0.01062     3.18705
      C    7   -0.10531      0.99960     2.09214    0.01356     3.10531
      C    8   -0.18854      0.99962     2.18011    0.00881     3.18854
      C    9   -0.10612      0.99960     2.09315    0.01336     3.10612
      C   10   -0.18587      0.99962     2.17716    0.00909     3.18587
      C   11   -0.18340      0.99958     2.17336    0.01046     3.18340
      H   12    0.09614      0.00000     0.40256    0.00130     0.40386
      H   13    0.09848      0.00000     0.40041    0.00112     0.40152
      H   14    0.09623      0.00000     0.40260    0.00116     0.40377
      H   15    0.09833      0.00000     0.40052    0.00116     0.40167
      H   16    0.10027      0.00000     0.39849    0.00124     0.39973
      H   17    0.09573      0.00000     0.40293    0.00135     0.40427
      H   18    0.09567      0.00000     0.40304    0.00129     0.40433
      H   19    0.10007      0.00000     0.39890    0.00103     0.39993
      H   20    0.09807      0.00000     0.40042    0.00151     0.40193
      H   21    0.10018      0.00000     0.39816    0.00166     0.39982
      H   22    0.09620      0.00000     0.40226    0.00154     0.40380
      H   23    0.09488      0.00000     0.40395    0.00117     0.40512
      H   24    0.10084      0.00000     0.39737    0.00179     0.39916
      H   25    0.09557      0.00000     0.40305    0.00138     0.40443
      H   26    0.10042      0.00000     0.39786    0.00172     0.39958
      H   27    0.09243      0.00000     0.40638    0.00119     0.40757
      H   28    0.09731      0.00000     0.40127    0.00142     0.40269
      H   29    0.09953      0.00000     0.39910    0.00138     0.40047
 =======================================================================
   * Total *    0.00000     10.99563    30.86724    0.13713    42.00000

                                 Natural Population      
 --------------------------------------------------------
   Core                      10.99563 ( 99.9602% of  11)
   Valence                   30.86724 ( 99.5718% of  31)
   Natural Minimal Basis     41.86287 ( 99.6735% of  42)
   Natural Rydberg Basis      0.13713 (  0.3265% of  42)
 --------------------------------------------------------

    Atom  No          Natural Electron Configuration
 ----------------------------------------------------------------------------
      C    1      [core]2S( 0.51)2p( 1.67)
      C    2      [core]2S( 0.51)2p( 1.67)
      C    3      [core]2S( 0.51)2p( 1.67)
      C    4      [core]2S( 0.46)2p( 1.57)3p( 0.01)
      C    5      [core]2S( 0.50)2p( 1.67)3p( 0.01)
      C    6      [core]2S( 0.50)2p( 1.68)3p( 0.01)
      C    7      [core]2S( 0.48)2p( 1.61)3p( 0.01)
      C    8      [core]2S( 0.51)2p( 1.67)
      C    9      [core]2S( 0.48)2p( 1.61)3p( 0.01)
      C   10      [core]2S( 0.51)2p( 1.66)
      C   11      [core]2S( 0.50)2p( 1.67)3p( 0.01)
      H   12            1S( 0.40)
      H   13            1S( 0.40)
      H   14            1S( 0.40)
      H   15            1S( 0.40)
      H   16            1S( 0.40)
      H   17            1S( 0.40)
      H   18            1S( 0.40)
      H   19            1S( 0.40)
      H   20            1S( 0.40)
      H   21            1S( 0.40)
      H   22            1S( 0.40)
      H   23            1S( 0.40)
      H   24            1S( 0.40)
      H   25            1S( 0.40)
      H   26            1S( 0.40)
      H   27            1S( 0.41)
      H   28            1S( 0.40)
      H   29            1S( 0.40)


 NBO analysis skipped by request.
 1\1\GINC-NODE103\SP\UB3LYP\6-311++G(d,p)\C11H18(1-,2)\VSC10255\08-Dec-
 2020\0\\# B3LYP/6-311++G(d,p) empiricaldispersion=gd3bj scf=xqc pop=np
 a geom=check\\CID_148964480_JID_1956_Energie_anion\\-1,2\C,0,-2.619991
 8437,0.3181695284,0.2223186661\C,0,-2.2475214636,-0.6747575645,-0.9163
 08696\C,0,-0.7919289788,-1.1155070826,-0.62595524\C,0,-0.1972762389,-0
 .0200138926,0.3001550915\C,0,-1.4236591662,0.279665901,1.1887584117\C,
 0,0.1817288816,1.2360389619,-0.552778048\C,0,1.6921254268,1.3816795037
 ,-0.7729493631\C,0,2.3822141623,-0.0032302105,-0.9298314166\C,0,2.3694
 139622,-0.0649056149,0.622222629\C,0,2.4039884107,1.4854407634,0.60109
 0626\C,0,1.0064164607,-0.5316526039,1.1452501632\H,0,-2.7442476995,1.3
 285804444,-0.1829927868\H,0,-3.5611030116,0.0581289753,0.7171624772\H,
 0,-2.3266053526,-0.1876044131,-1.8939256954\H,0,-2.9201470027,-1.53803
 09413,-0.944624382\H,0,-0.2118063062,-1.2658303609,-1.5415220371\H,0,-
 0.792711097,-2.071167122,-0.0868605133\H,0,-1.547689532,-0.5415360924,
 1.9083046475\H,0,-1.3027701715,1.2022705278,1.7684590594\H,0,-0.182356
 0401,2.1491799464,-0.0621598346\H,0,-0.3296481046,1.1862811914,-1.5220
 715784\H,0,1.9094274239,2.1516431134,-1.5209063419\H,0,1.8714009865,-0
 .7909863001,-1.4912551188\H,0,3.4012721204,0.1053224843,-1.3152262974\
 H,0,3.1887966854,-0.5893123373,1.1252990108\H,0,3.423750303,1.87326071
 55,0.5077874184\H,0,1.8834065818,2.0187693026,1.4062516064\H,0,0.90328
 73041,-0.1848835585,2.1827850881\H,0,0.9729032997,-1.6281732647,1.1834
 424541\\Version=ES64L-G16RevA.03\State=2-A\HF=-430.1295738\S2=0.750031
 \S2-1=0.\S2A=0.75\RMSD=4.130e-09\Dipole=-0.7340032,-0.2623364,0.208891
 9\Quadrupole=-15.3841205,6.7265083,8.6576122,-5.9195032,2.0955353,2.87
 98009\PG=C01 [X(C11H18)]\\@


 THOUGH I SPEAK WITH THE TONGUES OF MEN AND OF ANGELS, 
 AND HAVE NOT LOVE,
 I AM BECOME AS SOUNDING BRASS, A TINKLING CYMBAL.
 AND THOUGH I HAVE THE GIFT OF PROPHECY,
 AND UNDERSTAND ALL MYSTERIES, AND ALL KNOWLEDGE.
 AND THOUGH I HAVE ALL FAITH, SO THAT I COULD REMOVE MOUNTAINS,
 AND HAVE NOT LOVE, I AM NOTHING.
 AND THOUGH I BESTOW ALL MY GOODS TO FEED THE POOR,
 AND THOUGH I GIVE MY BODY TO BE BURNED,
 AND HAVE NOT LOVE IT PROFITETH ME NOTHING.
 LOVE SUFFERETH LONG, AND IS KIND,
 LOVE ENVIETH NOT,
 LOVE VAUNTETH NOT ITSELF, IS NOT PUFFED UP,
 DOTH NOT BEHAVE ITSELF UNSEEMLY, SEEKETH NOT HER OWN,
 IS NOT EASILY PROVOKED, THINKETH NO EVIL,
 REJOICETH NOT IN INIQUITY, BUT REJOICETH IN THE TRUTH,
 BEARETH ALL THINGS, BELIEVETH ALL THINGS,
 HOPETH ALL THINGS, ENDURETH ALL THINGS.
 LOVE NEVER FAILETH, BUT WHETHER THERE BE PROPHECIES, THEY SHALL FAIL, 
 WHETHER THERE BE TONGUES, THEY SHALL CEASE,
 WHETHER THERE BE KNOWLEDGE, IT SHALL VANISH AWAY.
 FOR WE KNOW IN PART, AND WE PROPHESY IN PART.
 BUT WHEN THAT WHICH IS PERFECT IS COME, THEN THAT WHICH IS IN PART 
 SHALL BE DONE AWAY. 
 WHEN I WAS A CHILD, I SPAKE AS A CHILD, I UNDERSTOOD AS A CHILD, 
 I THOUGHT AS A CHILD.
 BUT WHEN I BECAME A MAN, I PUT AWAY CHILDISH THINGS.
 FOR NOW WE SEE THROUGH A GLASS, DARKLY, BUT THEN FACE TO FACE.
 NOW I KNOW IN PART. BUT THEN SHALL I KNOW EVEN AS ALSO I AM KNOWN.
 AND NOW ABIDETH FAITH, HOPE AND LOVE, THESE THREE.
 BUT THE GREATEST OF THESE IS LOVE.

                     I CORINTHIANS 13
 Job cpu time:       0 days  0 hours 37 minutes 28.1 seconds.
 Elapsed time:       0 days  0 hours  9 minutes 24.3 seconds.
 File lengths (MBytes):  RWF=    184 Int=      0 D2E=      0 Chk=     20 Scr=      8
 Normal termination of Gaussian 16 at Tue Dec  8 22:16:42 2020.
