 Entering Gaussian System, Link 0=g16
 Initial command:
 /apps/brussel/CO7/skylake/software/Gaussian/G16.A.03-intel-2017b/g16/l1.exe "/scratch/brussel/102/vsc10255/3555211[7095].master01.hydra.brussel.vsc/Gau-88163.inp" -scrdir="/scratch/brussel/102/vsc10255/3555211[7095].master01.hydra.brussel.vsc/"
 Entering Link 1 = /apps/brussel/CO7/skylake/software/Gaussian/G16.A.03-intel-2017b/g16/l1.exe.bin PID=     88179.
  
 Copyright (c) 1988,1990,1992,1993,1995,1998,2003,2009,2016,
            Gaussian, Inc.  All Rights Reserved.
  
 This is part of the Gaussian(R) 16 program.  It is based on
 the Gaussian(R) 09 system (copyright 2009, Gaussian, Inc.),
 the Gaussian(R) 03 system (copyright 2003, Gaussian, Inc.),
 the Gaussian(R) 98 system (copyright 1998, Gaussian, Inc.),
 the Gaussian(R) 94 system (copyright 1995, Gaussian, Inc.),
 the Gaussian 92(TM) system (copyright 1992, Gaussian, Inc.),
 the Gaussian 90(TM) system (copyright 1990, Gaussian, Inc.),
 the Gaussian 88(TM) system (copyright 1988, Gaussian, Inc.),
 the Gaussian 86(TM) system (copyright 1986, Carnegie Mellon
 University), and the Gaussian 82(TM) system (copyright 1983,
 Carnegie Mellon University). Gaussian is a federally registered
 trademark of Gaussian, Inc.
  
 This software contains proprietary and confidential information,
 including trade secrets, belonging to Gaussian, Inc.
  
 This software is provided under written license and may be
 used, copied, transmitted, or stored only in accord with that
 written license.
  
 The following legend is applicable only to US Government
 contracts under FAR:
  
                    RESTRICTED RIGHTS LEGEND
  
 Use, reproduction and disclosure by the US Government is
 subject to restrictions as set forth in subparagraphs (a)
 and (c) of the Commercial Computer Software - Restricted
 Rights clause in FAR 52.227-19.
  
 Gaussian, Inc.
 340 Quinnipiac St., Bldg. 40, Wallingford CT 06492
  
  
 ---------------------------------------------------------------
 Warning -- This program may not be used in any manner that
 competes with the business of Gaussian, Inc. or will provide
 assistance to any competitor of Gaussian, Inc.  The licensee
 of this program is prohibited from giving any competitor of
 Gaussian, Inc. access to this program.  By using this program,
 the user acknowledges that Gaussian, Inc. is engaged in the
 business of creating and licensing software in the field of
 computational chemistry and represents and warrants to the
 licensee that it is not a competitor of Gaussian, Inc. and that
 it will not use this program in any manner prohibited above.
 ---------------------------------------------------------------
  

 Cite this work as:
 Gaussian 16, Revision A.03,
 M. J. Frisch, G. W. Trucks, H. B. Schlegel, G. E. Scuseria, 
 M. A. Robb, J. R. Cheeseman, G. Scalmani, V. Barone, 
 G. A. Petersson, H. Nakatsuji, X. Li, M. Caricato, A. V. Marenich, 
 J. Bloino, B. G. Janesko, R. Gomperts, B. Mennucci, H. P. Hratchian, 
 J. V. Ortiz, A. F. Izmaylov, J. L. Sonnenberg, D. Williams-Young, 
 F. Ding, F. Lipparini, F. Egidi, J. Goings, B. Peng, A. Petrone, 
 T. Henderson, D. Ranasinghe, V. G. Zakrzewski, J. Gao, N. Rega, 
 G. Zheng, W. Liang, M. Hada, M. Ehara, K. Toyota, R. Fukuda, 
 J. Hasegawa, M. Ishida, T. Nakajima, Y. Honda, O. Kitao, H. Nakai, 
 T. Vreven, K. Throssell, J. A. Montgomery, Jr., J. E. Peralta, 
 F. Ogliaro, M. J. Bearpark, J. J. Heyd, E. N. Brothers, K. N. Kudin, 
 V. N. Staroverov, T. A. Keith, R. Kobayashi, J. Normand, 
 K. Raghavachari, A. P. Rendell, J. C. Burant, S. S. Iyengar, 
 J. Tomasi, M. Cossi, J. M. Millam, M. Klene, C. Adamo, R. Cammi, 
 J. W. Ochterski, R. L. Martin, K. Morokuma, O. Farkas, 
 J. B. Foresman, and D. J. Fox, Gaussian, Inc., Wallingford CT, 2016.
 
 ******************************************
 Gaussian 16:  ES64L-G16RevA.03 25-Dec-2016
                11-Dec-2020 
 ******************************************
 %chk=JID_7095.chk
 %mem=8GB
 %nprocshared=4
 Will use up to    4 processors via shared memory.
 -----------------------------------------------------------
 # opt freq B3LYP/6-31G(d) empiricaldispersion=gd3bj scf=xqc
 -----------------------------------------------------------
 1/18=20,19=15,26=3,38=1/1,3;
 2/9=110,12=2,17=6,18=5,40=1/2;
 3/5=1,6=6,7=1,11=2,25=1,30=1,71=1,74=-5,124=41/1,2,3;
 4//1;
 5/5=2,8=3,13=1,38=5/2,8;
 6/7=2,8=2,9=2,10=2,28=1/1;
 7//1,2,3,16;
 1/18=20,19=15,26=3/3(2);
 2/9=110/2;
 99//99;
 2/9=110/2;
 3/5=1,6=6,7=1,11=2,25=1,30=1,71=1,74=-5,124=41/1,2,3;
 4/5=5,16=3,69=1/1;
 5/5=2,8=3,13=1,38=5/2,8;
 7//1,2,3,16;
 1/18=20,19=15,26=3/3(-5);
 2/9=110/2;
 6/7=2,8=2,9=2,10=2,19=2,28=1/1;
 99/9=1/99;
 -------------------------------
 CID_113481757_JID_7095_neutraal
 -------------------------------
 Symbolic Z-matrix:
 Charge =  0 Multiplicity = 1
 C                     1.02363   0.09508   0.02004 
 C                     0.86915   1.18534  -1.0112 
 C                     1.02362   0.58904  -2.41247 
 C                     0.2851   -0.74326  -2.67405 
 C                     0.51695   1.53822  -3.48612 
 N                     0.09663   2.32565  -4.37681 
 N                     2.48843   0.44278  -2.78968 
 C                     3.39656  -0.38372  -2.13597 
 C                     4.39942   0.17968  -1.33224 
 C                     5.3105   -0.61556  -0.62667 
 C                     5.225    -2.0013   -0.72741 
 C                     4.24058  -2.57882  -1.53081 
 C                     3.33493  -1.77397  -2.22724 
 O                     6.21845   0.0845    0.11957 
 C                     7.1849   -0.67431   0.83537 
 O                    -0.29254   1.98842  -0.75553 
 C                    -1.56981   1.37902  -0.82999 
 H                     0.22509  -0.6518   -0.01689 
 H                     0.9457    0.53744   1.0216 
 H                     1.97641  -0.42944  -0.00789 
 H                     1.69537   1.89117  -0.85325 
 H                    -0.7998   -0.63943  -2.58161 
 H                     0.47839  -1.10511  -3.69257 
 H                     0.59091  -1.54342  -1.99522 
 H                     2.89848   1.37141  -2.91456 
 H                     4.47969   1.26012  -1.23663 
 H                     5.90944  -2.65909  -0.20262 
 H                     4.18302  -3.66038  -1.62398 
 H                     2.60587  -2.25215  -2.87472 
 H                     6.70741  -1.31402   1.58484 
 H                     7.81042  -1.26073   0.15432 
 H                     7.83639   0.02825   1.36405 
 H                    -1.83456   1.15537  -1.865 
 H                    -1.63428   0.48132  -0.21177 
 H                    -2.30447   2.09712  -0.4538 
 

 GradGradGradGradGradGradGradGradGradGradGradGradGradGradGradGradGradGrad
 Berny optimization.
 Initialization pass.
                           ----------------------------
                           !    Initial Parameters    !
                           ! (Angstroms and Degrees)  !
 --------------------------                            --------------------------
 ! Name  Definition              Value          Derivative Info.                !
 --------------------------------------------------------------------------------
 ! R1    R(1,2)                  1.5086         estimate D2E/DX2                !
 ! R2    R(1,18)                 1.094          estimate D2E/DX2                !
 ! R3    R(1,19)                 1.0977         estimate D2E/DX2                !
 ! R4    R(1,20)                 1.088          estimate D2E/DX2                !
 ! R5    R(2,3)                  1.5307         estimate D2E/DX2                !
 ! R6    R(2,16)                 1.4352         estimate D2E/DX2                !
 ! R7    R(2,21)                 1.0981         estimate D2E/DX2                !
 ! R8    R(3,4)                  1.5456         estimate D2E/DX2                !
 ! R9    R(3,5)                  1.52           estimate D2E/DX2                !
 ! R10   R(3,7)                  1.5197         estimate D2E/DX2                !
 ! R11   R(4,22)                 1.0938         estimate D2E/DX2                !
 ! R12   R(4,23)                 1.098          estimate D2E/DX2                !
 ! R13   R(4,24)                 1.093          estimate D2E/DX2                !
 ! R14   R(5,6)                  1.261          estimate D2E/DX2                !
 ! R15   R(7,8)                  1.3911         estimate D2E/DX2                !
 ! R16   R(7,25)                 1.0228         estimate D2E/DX2                !
 ! R17   R(8,9)                  1.4033         estimate D2E/DX2                !
 ! R18   R(8,13)                 1.3946         estimate D2E/DX2                !
 ! R19   R(9,10)                 1.4001         estimate D2E/DX2                !
 ! R20   R(9,26)                 1.0876         estimate D2E/DX2                !
 ! R21   R(10,11)                1.392          estimate D2E/DX2                !
 ! R22   R(10,14)                1.368          estimate D2E/DX2                !
 ! R23   R(11,12)                1.3957         estimate D2E/DX2                !
 ! R24   R(11,27)                1.0847         estimate D2E/DX2                !
 ! R25   R(12,13)                1.3975         estimate D2E/DX2                !
 ! R26   R(12,28)                1.0871         estimate D2E/DX2                !
 ! R27   R(13,29)                1.086          estimate D2E/DX2                !
 ! R28   R(14,15)                1.422          estimate D2E/DX2                !
 ! R29   R(15,30)                1.095          estimate D2E/DX2                !
 ! R30   R(15,31)                1.095          estimate D2E/DX2                !
 ! R31   R(15,32)                1.0943         estimate D2E/DX2                !
 ! R32   R(16,17)                1.4172         estimate D2E/DX2                !
 ! R33   R(17,33)                1.0915         estimate D2E/DX2                !
 ! R34   R(17,34)                1.0919         estimate D2E/DX2                !
 ! R35   R(17,35)                1.094          estimate D2E/DX2                !
 ! A1    A(2,1,18)             113.3006         estimate D2E/DX2                !
 ! A2    A(2,1,19)             108.9776         estimate D2E/DX2                !
 ! A3    A(2,1,20)             114.8682         estimate D2E/DX2                !
 ! A4    A(18,1,19)            104.7207         estimate D2E/DX2                !
 ! A5    A(18,1,20)            108.0121         estimate D2E/DX2                !
 ! A6    A(19,1,20)            106.2534         estimate D2E/DX2                !
 ! A7    A(1,2,3)              109.5058         estimate D2E/DX2                !
 ! A8    A(1,2,16)             111.4378         estimate D2E/DX2                !
 ! A9    A(1,2,21)             106.8075         estimate D2E/DX2                !
 ! A10   A(3,2,16)             117.5645         estimate D2E/DX2                !
 ! A11   A(3,2,21)             107.8277         estimate D2E/DX2                !
 ! A12   A(16,2,21)            102.9281         estimate D2E/DX2                !
 ! A13   A(2,3,4)              116.2646         estimate D2E/DX2                !
 ! A14   A(2,3,5)              111.6986         estimate D2E/DX2                !
 ! A15   A(2,3,7)              111.2232         estimate D2E/DX2                !
 ! A16   A(4,3,5)              105.0384         estimate D2E/DX2                !
 ! A17   A(4,3,7)              109.6094         estimate D2E/DX2                !
 ! A18   A(5,3,7)              101.8926         estimate D2E/DX2                !
 ! A19   A(3,4,22)             112.1985         estimate D2E/DX2                !
 ! A20   A(3,4,23)             110.9124         estimate D2E/DX2                !
 ! A21   A(3,4,24)             113.0951         estimate D2E/DX2                !
 ! A22   A(22,4,23)            106.516          estimate D2E/DX2                !
 ! A23   A(22,4,24)            107.1296         estimate D2E/DX2                !
 ! A24   A(23,4,24)            106.5947         estimate D2E/DX2                !
 ! A25   A(3,7,8)              124.736          estimate D2E/DX2                !
 ! A26   A(3,7,25)             109.2304         estimate D2E/DX2                !
 ! A27   A(8,7,25)             109.5783         estimate D2E/DX2                !
 ! A28   A(7,8,9)              119.8122         estimate D2E/DX2                !
 ! A29   A(7,8,13)             122.1866         estimate D2E/DX2                !
 ! A30   A(9,8,13)             117.9893         estimate D2E/DX2                !
 ! A31   A(8,9,10)             121.7115         estimate D2E/DX2                !
 ! A32   A(8,9,26)             120.1281         estimate D2E/DX2                !
 ! A33   A(10,9,26)            118.1581         estimate D2E/DX2                !
 ! A34   A(9,10,11)            119.2737         estimate D2E/DX2                !
 ! A35   A(9,10,14)            114.5908         estimate D2E/DX2                !
 ! A36   A(11,10,14)           126.1348         estimate D2E/DX2                !
 ! A37   A(10,11,12)           119.7942         estimate D2E/DX2                !
 ! A38   A(10,11,27)           122.0003         estimate D2E/DX2                !
 ! A39   A(12,11,27)           118.2041         estimate D2E/DX2                !
 ! A40   A(11,12,13)           120.3728         estimate D2E/DX2                !
 ! A41   A(11,12,28)           119.8909         estimate D2E/DX2                !
 ! A42   A(13,12,28)           119.7336         estimate D2E/DX2                !
 ! A43   A(8,13,12)            120.8553         estimate D2E/DX2                !
 ! A44   A(8,13,29)            120.5054         estimate D2E/DX2                !
 ! A45   A(12,13,29)           118.5925         estimate D2E/DX2                !
 ! A46   A(10,14,15)           116.9104         estimate D2E/DX2                !
 ! A47   A(14,15,30)           111.0952         estimate D2E/DX2                !
 ! A48   A(14,15,31)           111.1578         estimate D2E/DX2                !
 ! A49   A(14,15,32)           107.7707         estimate D2E/DX2                !
 ! A50   A(30,15,31)           111.2202         estimate D2E/DX2                !
 ! A51   A(30,15,32)           107.6991         estimate D2E/DX2                !
 ! A52   A(31,15,32)           107.7111         estimate D2E/DX2                !
 ! A53   A(2,16,17)            118.6558         estimate D2E/DX2                !
 ! A54   A(16,17,33)           110.8884         estimate D2E/DX2                !
 ! A55   A(16,17,34)           112.1484         estimate D2E/DX2                !
 ! A56   A(16,17,35)           107.7528         estimate D2E/DX2                !
 ! A57   A(33,17,34)           110.739          estimate D2E/DX2                !
 ! A58   A(33,17,35)           107.318          estimate D2E/DX2                !
 ! A59   A(34,17,35)           107.7766         estimate D2E/DX2                !
 ! A60   L(3,5,6,17,-1)        180.0003         estimate D2E/DX2                !
 ! A61   L(3,5,6,17,-2)        179.9998         estimate D2E/DX2                !
 ! D1    D(18,1,2,3)           -65.7716         estimate D2E/DX2                !
 ! D2    D(18,1,2,16)           66.0261         estimate D2E/DX2                !
 ! D3    D(18,1,2,21)          177.7225         estimate D2E/DX2                !
 ! D4    D(19,1,2,3)           178.0811         estimate D2E/DX2                !
 ! D5    D(19,1,2,16)          -50.1213         estimate D2E/DX2                !
 ! D6    D(19,1,2,21)           61.5752         estimate D2E/DX2                !
 ! D7    D(20,1,2,3)            59.0281         estimate D2E/DX2                !
 ! D8    D(20,1,2,16)         -169.1742         estimate D2E/DX2                !
 ! D9    D(20,1,2,21)          -57.4778         estimate D2E/DX2                !
 ! D10   D(1,2,3,4)             44.1911         estimate D2E/DX2                !
 ! D11   D(1,2,3,5)            164.7059         estimate D2E/DX2                !
 ! D12   D(1,2,3,7)            -82.1864         estimate D2E/DX2                !
 ! D13   D(16,2,3,4)           -84.2933         estimate D2E/DX2                !
 ! D14   D(16,2,3,5)            36.2215         estimate D2E/DX2                !
 ! D15   D(16,2,3,7)           149.3292         estimate D2E/DX2                !
 ! D16   D(21,2,3,4)           160.05           estimate D2E/DX2                !
 ! D17   D(21,2,3,5)           -79.4352         estimate D2E/DX2                !
 ! D18   D(21,2,3,7)            33.6724         estimate D2E/DX2                !
 ! D19   D(1,2,16,17)          -64.0183         estimate D2E/DX2                !
 ! D20   D(3,2,16,17)           63.5435         estimate D2E/DX2                !
 ! D21   D(21,2,16,17)        -178.1517         estimate D2E/DX2                !
 ! D22   D(2,3,4,22)            62.6359         estimate D2E/DX2                !
 ! D23   D(2,3,4,23)          -178.3767         estimate D2E/DX2                !
 ! D24   D(2,3,4,24)           -58.6856         estimate D2E/DX2                !
 ! D25   D(5,3,4,22)           -61.3844         estimate D2E/DX2                !
 ! D26   D(5,3,4,23)            57.603          estimate D2E/DX2                !
 ! D27   D(5,3,4,24)           177.2941         estimate D2E/DX2                !
 ! D28   D(7,3,4,22)          -170.1829         estimate D2E/DX2                !
 ! D29   D(7,3,4,23)           -51.1955         estimate D2E/DX2                !
 ! D30   D(7,3,4,24)            68.4956         estimate D2E/DX2                !
 ! D31   D(2,3,7,8)             63.7239         estimate D2E/DX2                !
 ! D32   D(2,3,7,25)           -68.6315         estimate D2E/DX2                !
 ! D33   D(4,3,7,8)            -66.2392         estimate D2E/DX2                !
 ! D34   D(4,3,7,25)           161.4053         estimate D2E/DX2                !
 ! D35   D(5,3,7,8)           -177.1254         estimate D2E/DX2                !
 ! D36   D(5,3,7,25)            50.5192         estimate D2E/DX2                !
 ! D37   D(3,7,8,9)           -108.3758         estimate D2E/DX2                !
 ! D38   D(3,7,8,13)            70.3457         estimate D2E/DX2                !
 ! D39   D(25,7,8,9)            23.8449         estimate D2E/DX2                !
 ! D40   D(25,7,8,13)         -157.4336         estimate D2E/DX2                !
 ! D41   D(7,8,9,10)           178.1778         estimate D2E/DX2                !
 ! D42   D(7,8,9,26)            -1.2591         estimate D2E/DX2                !
 ! D43   D(13,8,9,10)           -0.5969         estimate D2E/DX2                !
 ! D44   D(13,8,9,26)          179.9662         estimate D2E/DX2                !
 ! D45   D(7,8,13,12)         -178.3234         estimate D2E/DX2                !
 ! D46   D(7,8,13,29)            4.1992         estimate D2E/DX2                !
 ! D47   D(9,8,13,12)            0.4204         estimate D2E/DX2                !
 ! D48   D(9,8,13,29)         -177.057          estimate D2E/DX2                !
 ! D49   D(8,9,10,11)            0.2604         estimate D2E/DX2                !
 ! D50   D(8,9,10,14)         -179.4582         estimate D2E/DX2                !
 ! D51   D(26,9,10,11)         179.7079         estimate D2E/DX2                !
 ! D52   D(26,9,10,14)          -0.0107         estimate D2E/DX2                !
 ! D53   D(9,10,11,12)           0.2615         estimate D2E/DX2                !
 ! D54   D(9,10,11,27)         179.813          estimate D2E/DX2                !
 ! D55   D(14,10,11,12)        179.9447         estimate D2E/DX2                !
 ! D56   D(14,10,11,27)         -0.5038         estimate D2E/DX2                !
 ! D57   D(9,10,14,15)        -178.7617         estimate D2E/DX2                !
 ! D58   D(11,10,14,15)          1.5423         estimate D2E/DX2                !
 ! D59   D(10,11,12,13)         -0.4339         estimate D2E/DX2                !
 ! D60   D(10,11,12,28)        178.9616         estimate D2E/DX2                !
 ! D61   D(27,11,12,13)        179.9977         estimate D2E/DX2                !
 ! D62   D(27,11,12,28)         -0.6068         estimate D2E/DX2                !
 ! D63   D(11,12,13,8)           0.0855         estimate D2E/DX2                !
 ! D64   D(11,12,13,29)        177.6102         estimate D2E/DX2                !
 ! D65   D(28,12,13,8)        -179.311          estimate D2E/DX2                !
 ! D66   D(28,12,13,29)         -1.7863         estimate D2E/DX2                !
 ! D67   D(10,14,15,30)        -62.9823         estimate D2E/DX2                !
 ! D68   D(10,14,15,31)         61.4407         estimate D2E/DX2                !
 ! D69   D(10,14,15,32)        179.2542         estimate D2E/DX2                !
 ! D70   D(2,16,17,33)         -71.6409         estimate D2E/DX2                !
 ! D71   D(2,16,17,34)          52.7307         estimate D2E/DX2                !
 ! D72   D(2,16,17,35)         171.183          estimate D2E/DX2                !
 --------------------------------------------------------------------------------
 Trust Radius=3.00D-01 FncErr=1.00D-07 GrdErr=1.00D-06 EigMax=2.50D+02 EigMin=1.00D-04
 Number of steps in this run=    178 maximum allowed number of steps=    210.
 GradGradGradGradGradGradGradGradGradGradGradGradGradGradGradGradGradGrad

                          Input orientation:                          
 ---------------------------------------------------------------------
 Center     Atomic      Atomic             Coordinates (Angstroms)
 Number     Number       Type             X           Y           Z
 ---------------------------------------------------------------------
      1          6           0        1.023630    0.095080    0.020040
      2          6           0        0.869150    1.185340   -1.011200
      3          6           0        1.023620    0.589040   -2.412470
      4          6           0        0.285100   -0.743260   -2.674050
      5          6           0        0.516950    1.538220   -3.486120
      6          7           0        0.096630    2.325650   -4.376810
      7          7           0        2.488430    0.442780   -2.789680
      8          6           0        3.396560   -0.383720   -2.135970
      9          6           0        4.399420    0.179680   -1.332240
     10          6           0        5.310500   -0.615560   -0.626670
     11          6           0        5.225000   -2.001300   -0.727410
     12          6           0        4.240580   -2.578820   -1.530810
     13          6           0        3.334930   -1.773970   -2.227240
     14          8           0        6.218450    0.084500    0.119570
     15          6           0        7.184900   -0.674310    0.835370
     16          8           0       -0.292540    1.988420   -0.755530
     17          6           0       -1.569810    1.379020   -0.829990
     18          1           0        0.225090   -0.651800   -0.016890
     19          1           0        0.945700    0.537440    1.021600
     20          1           0        1.976410   -0.429440   -0.007890
     21          1           0        1.695370    1.891170   -0.853250
     22          1           0       -0.799800   -0.639430   -2.581610
     23          1           0        0.478390   -1.105110   -3.692570
     24          1           0        0.590910   -1.543420   -1.995220
     25          1           0        2.898480    1.371410   -2.914560
     26          1           0        4.479690    1.260120   -1.236630
     27          1           0        5.909440   -2.659090   -0.202620
     28          1           0        4.183020   -3.660380   -1.623980
     29          1           0        2.605870   -2.252150   -2.874720
     30          1           0        6.707410   -1.314020    1.584840
     31          1           0        7.810420   -1.260730    0.154320
     32          1           0        7.836390    0.028250    1.364050
     33          1           0       -1.834560    1.155370   -1.865000
     34          1           0       -1.634280    0.481320   -0.211770
     35          1           0       -2.304470    2.097120   -0.453800
 ---------------------------------------------------------------------
                    Distance matrix (angstroms):
                    1          2          3          4          5
     1  C    0.000000
     2  C    1.508637   0.000000
     3  C    2.482157   1.530684   0.000000
     4  C    2.916567   2.612601   1.545593   0.000000
     5  C    3.825250   2.524638   1.519994   2.432769   0.000000
     6  N    5.016678   3.636540   2.780963   3.514701   1.260969
     7  N    3.187642   2.517231   1.519654   2.504940   2.360456
     8  C    3.241670   3.180386   2.579449   3.178047   3.716034
     9  C    3.637551   3.684729   3.567982   4.424918   4.643103
    10  C    4.393233   4.807982   4.797654   5.427957   5.982754
    11  C    4.754472   5.404502   5.215447   5.456618   6.504185
    12  C    4.461350   5.079905   4.600162   4.508004   5.885463
    13  C    3.726355   4.039349   3.310631   3.250149   4.527294
    14  O    5.195784   5.577230   5.801038   6.610154   6.900826
    15  C    6.262425   6.837896   7.078551   7.741319   8.248159
    16  O    2.432807   1.435210   2.536926   3.387693   2.883414
    17  C    3.016121   2.453340   3.139138   3.368282   3.381559
    18  H    1.094011   2.185989   2.813563   2.659411   4.113019
    19  H    1.097669   2.134926   3.435341   3.966663   4.637340
    20  H    1.087976   2.200039   2.779769   3.172920   4.254385
    21  H    2.107086   1.098082   2.139616   3.499199   2.906072
    22  H    3.260826   2.929397   2.205132   1.093770   2.700764
    23  H    3.939697   3.548042   2.192276   1.098034   2.651660
    24  H    2.633097   2.914077   2.215563   1.092971   3.424143
    25  H    3.708903   2.788473   2.092677   3.370375   2.454830
    26  H    3.857575   3.618344   3.711788   4.865624   4.565178
    27  H    5.613036   6.390459   6.269372   6.435182   7.581407
    28  H    5.175715   5.902392   5.353606   4.980564   6.628203
    29  H    4.048779   4.278462   3.284745   2.775426   4.370847
    30  H    6.061313   6.860868   7.204554   7.727223   8.495393
    31  H    6.922194   7.451371   7.488038   8.055923   8.618679
    32  H    6.944388   7.451383   7.809637   8.597875   8.909453
    33  H    3.584249   2.835475   2.964734   2.958431   2.881701
    34  H    2.695812   2.720642   3.452407   3.353571   4.057856
    35  H    3.912664   3.348716   4.145706   4.438822   4.179443
                    6          7          8          9         10
     6  N    0.000000
     7  N    3.432913   0.000000
     8  C    4.821990   1.391093   0.000000
     9  C    5.691098   2.417692   1.403257   0.000000
    10  C    7.063902   3.709821   2.448449   1.400108   0.000000
    11  C    7.638115   4.208955   2.818475   2.409165   1.392025
    12  C    7.023237   3.712795   2.428385   2.770195   2.411760
    13  C    5.649259   2.438623   1.394605   2.398106   2.794032
    14  O    7.919398   4.743959   3.642767   2.329309   1.367966
    15  C    9.295706   6.037028   4.823362   3.631354   2.377896
    16  O    3.657711   3.776316   4.598056   5.061484   6.179917
    17  C    4.031509   4.602852   5.429334   6.109204   7.166474
    18  H    5.281156   3.742884   3.823688   4.454945   5.121966
    19  H    5.749908   4.112764   4.101890   4.194846   4.806005
    20  H    5.496504   2.959947   2.558836   2.827704   3.396128
    21  H    3.893612   2.544904   3.116816   3.235818   4.405020
    22  H    3.580228   3.467986   4.227697   5.409598   6.415460
    23  H    3.519096   2.692849   3.385133   4.753559   5.743578
    24  H    4.570119   2.859500   3.039142   4.232418   5.000838
    25  H    3.301380   1.022785   1.983625   2.485312   3.873026
    26  H    5.496117   2.654266   2.164300   1.087628   2.140204
    27  H    8.721253   5.293183   3.902527   3.408052   2.171304
    28  H    7.753013   4.589816   3.408395   3.857201   3.396582
    29  H    5.432201   2.698828   2.159160   3.392619   3.879069
    30  H    9.617218   6.326339   5.066716   4.008405   2.707394
    31  H    9.638248   6.316064   5.049429   3.989933   2.697367
    32  H    9.906533   6.784245   5.668505   4.371004   3.279875
    33  H    3.377609   4.477841   5.459564   6.332323   7.464686
    34  H    4.872901   4.862494   5.455290   6.144264   7.043100
    35  H    4.605162   5.582568   6.440963   7.027829   8.085560
                   11         12         13         14         15
    11  C    0.000000
    12  C    1.395731   0.000000
    13  C    2.423537   1.397498   0.000000
    14  O    2.460667   3.705266   4.156455   0.000000
    15  C    2.836264   4.230247   5.040942   1.422037   0.000000
    16  O    6.808958   6.481506   5.429553   6.839861   8.095258
    17  C    7.589897   7.065145   5.995843   7.952009   9.145192
    18  H    5.227341   4.704202   3.976936   6.039961   7.011834
    19  H    5.274149   5.204047   4.648225   5.368492   6.358509
    20  H    3.679917   3.473555   2.928968   4.274960   5.281990
    21  H    5.255991   5.188255   4.243731   4.966758   6.290315
    22  H    6.449106   5.501895   4.302180   7.554885   8.685183
    23  H    5.667948   4.582478   3.279388   6.992558   8.103401
    24  H    4.826156   3.822018   2.763446   6.228296   7.228298
    25  H    4.644512   4.395488   3.249048   4.678064   6.051474
    26  H    3.384029   3.857613   3.390794   2.498929   3.918337
    27  H    1.084689   2.134391   3.392731   2.779673   2.577513
    28  H    2.154555   1.087091   2.154466   4.605113   4.896560
    29  H    3.396131   2.141281   1.086009   5.241797   6.100972
    30  H    2.831324   4.170401   5.110492   2.083736   1.094957
    31  H    2.830245   4.161824   5.095611   2.084519   1.094985
    32  H    3.913136   5.301592   6.033946   2.041966   1.094318
    33  H    7.816397   7.138850   5.952804   8.362790   9.591162
    34  H    7.312934   6.754132   5.817345   7.869728   8.955999
    35  H    8.576994   8.115543   7.066347   8.776079   9.969500
                   16         17         18         19         20
    16  O    0.000000
    17  C    1.417156   0.000000
    18  H    2.790034   2.829669   0.000000
    19  H    2.607062   3.234878   1.735521   0.000000
    20  H    3.398992   4.064733   1.765403   1.748448   0.000000
    21  H    1.992685   3.305184   3.054164   2.430978   2.485729
    22  H    3.239981   2.781228   2.761945   4.173118   3.791500
    23  H    4.334797   4.308177   3.712179   5.013955   4.034534
    24  H    3.845934   3.816691   2.200591   3.681991   2.666466
    25  H    3.901887   4.930629   4.431352   4.472383   3.541469
    26  H    4.851397   6.064317   4.821289   4.255697   3.260495
    27  H    7.769789   8.522858   6.031214   6.029530   4.525261
    28  H    7.259048   7.689020   5.224893   5.924612   4.233184
    29  H    5.556454   5.899375   4.049250   5.071419   3.455026
    30  H    8.085960   9.033064   6.710033   6.078030   5.069678
    31  H    8.777401   9.794175   7.611658   7.149124   5.895170
    32  H    8.626377   9.752691   7.765394   6.917959   6.035815
    33  H    2.074300   1.091493   3.305077   4.055138   4.525922
    34  H    2.089807   1.091887   2.186137   2.860183   3.729361
    35  H    2.037331   1.094035   3.761134   3.895255   4.990819
                   21         22         23         24         25
    21  H    0.000000
    22  H    3.951840   0.000000
    23  H    4.303542   1.756377   0.000000
    24  H    3.784222   1.759297   1.756637   0.000000
    25  H    2.442667   4.222749   3.548984   3.829660   0.000000
    26  H    2.880563   5.769773   5.257029   4.853649   2.308259
    27  H    6.235910   7.399495   6.640099   5.722316   5.715368
    28  H    6.132058   5.905226   4.953055   4.186000   5.351126
    29  H    4.699197   3.779599   2.551617   2.309953   3.635574
    30  H    6.429469   8.612350   8.166725   7.090912   6.477969
    31  H    6.952950   9.055784   8.281391   7.538021   6.361866
    32  H    6.789626   9.518288   8.999671   8.139522   6.670348
    33  H    3.745056   2.192160   3.714770   3.630885   4.852826
    34  H    3.672294   2.751105   4.369909   3.497390   5.351939
    35  H    4.025009   3.778930   5.337436   4.900279   5.801093
                   26         27         28         29         30
    26  H    0.000000
    27  H    4.298089   0.000000
    28  H    4.944631   2.450178   0.000000
    29  H    4.304716   4.268406   2.456596   0.000000
    30  H    4.421496   2.375075   4.708978   6.131101   0.000000
    31  H    4.402634   2.386743   4.698798   6.102896   1.807169
    32  H    4.421366   3.659151   5.990111   7.108146   1.767776
    33  H    6.346304   8.791083   7.711083   5.687543   9.537533
    34  H    6.247999   8.171289   7.279354   5.704562   8.719796
    35  H    6.880278   9.494890   8.752466   6.992027   9.849158
                   31         32         33         34         35
    31  H    0.000000
    32  H    1.767934   0.000000
    33  H   10.145976  10.257896   0.000000
    34  H    9.610989   9.611559   1.796559   0.000000
    35  H   10.675016  10.508180   1.760453   1.765940   0.000000
 Stoichiometry    C13H18N2O2
 Framework group  C1[X(C13H18N2O2)]
 Deg. of freedom    99
 Full point group                 C1      NOp   1
 Largest Abelian subgroup         C1      NOp   1
 Largest concise Abelian subgroup C1      NOp   1
                         Standard orientation:                         
 ---------------------------------------------------------------------
 Center     Atomic      Atomic             Coordinates (Angstroms)
 Number     Number       Type             X           Y           Z
 ---------------------------------------------------------------------
      1          6           0        0.981488    1.437045   -1.162286
      2          6           0        1.766154    1.047374    0.065900
      3          6           0        1.803976   -0.478159    0.185529
      4          6           0        2.092131   -1.259387   -1.116588
      5          6           0        2.870296   -0.938716    1.165953
      6          7           0        3.754897   -1.320791    1.979307
      7          7           0        0.535018   -1.011073    0.829809
      8          6           0       -0.738887   -0.900162    0.282082
      9          6           0       -1.670674   -0.021372    0.855345
     10          6           0       -2.950702    0.149473    0.314379
     11          6           0       -3.313037   -0.573876   -0.818411
     12          6           0       -2.402729   -1.460590   -1.395595
     13          6           0       -1.126829   -1.619415   -0.848006
     14          8           0       -3.735341    1.049523    0.981899
     15          6           0       -5.055811    1.241257    0.490184
     16          8           0        3.015622    1.750146    0.134946
     17          6           0        3.982762    1.517702   -0.874480
     18          1           0        1.460330    1.130614   -2.096989
     19          1           0        0.930595    2.531969   -1.220851
     20          1           0       -0.047142    1.083044   -1.179433
     21          1           0        1.215873    1.438945    0.931722
     22          1           0        3.080885   -1.031550   -1.524988
     23          1           0        2.070640   -2.342388   -0.936797
     24          1           0        1.363694   -1.059590   -1.906553
     25          1           0        0.511495   -0.727855    1.812318
     26          1           0       -1.405045    0.556422    1.737688
     27          1           0       -4.293557   -0.478153   -1.272249
     28          1           0       -2.689881   -2.038808   -2.270223
     29          1           0       -0.455495   -2.345768   -1.296489
     30          1           0       -5.042632    1.648611   -0.526094
     31          1           0       -5.633883    0.312498    0.537431
     32          1           0       -5.549563    1.973917    1.135902
     33          1           0        4.425470    0.525693   -0.768250
     34          1           0        3.571869    1.652389   -1.877099
     35          1           0        4.785867    2.248656   -0.741661
 ---------------------------------------------------------------------
 Rotational constants (GHZ):           0.8960153           0.2421238           0.2299395
 Standard basis: 6-31G(d) (6D, 7F)
 There are   291 symmetry adapted cartesian basis functions of A   symmetry.
 There are   291 symmetry adapted basis functions of A   symmetry.
   291 basis functions,   548 primitive gaussians,   291 cartesian basis functions
    63 alpha electrons       63 beta electrons
       nuclear repulsion energy      1214.0173369499 Hartrees.
 NAtoms=   35 NActive=   35 NUniq=   35 SFac= 1.00D+00 NAtFMM=   60 NAOKFM=F Big=F
 Integral buffers will be    131072 words long.
 Raffenetti 2 integral format.
 Two-electron integral symmetry is turned on.
 Nuclear repulsion after empirical dispersion term =     1213.9469442456 Hartrees.
 One-electron integrals computed using PRISM.
 NBasis=   291 RedAO= T EigKep=  4.10D-04  NBF=   291
 NBsUse=   291 1.00D-06 EigRej= -1.00D+00 NBFU=   291
 ExpMin= 1.61D-01 ExpMax= 5.48D+03 ExpMxC= 8.25D+02 IAcc=3 IRadAn=         5 AccDes= 0.00D+00
 Harris functional with IExCor=  402 and IRadAn=       5 diagonalized for initial guess.
 HarFok:  IExCor=  402 AccDes= 0.00D+00 IRadAn=         5 IDoV= 1 UseB2=F ITyADJ=14
 ICtDFT=  3500011 ScaDFX=  1.000000  1.000000  1.000000  1.000000
 FoFCou: FMM=F IPFlag=           0 FMFlag=      100000 FMFlg1=           0
         NFxFlg=           0 DoJE=T BraDBF=F KetDBF=T FulRan=T
         wScrn=  0.000000 ICntrl=       500 IOpCl=  0 I1Cent=   200000004 NGrid=           0
         NMat0=    1 NMatS0=      1 NMatT0=    0 NMatD0=    1 NMtDS0=    0 NMtDT0=    0
 Petite list used in FoFCou.
 Requested convergence on RMS density matrix=1.00D-08 within  32 cycles.
 Requested convergence on MAX density matrix=1.00D-06.
 Requested convergence on             energy=1.00D-06.
 No special actions if energy rises.
 Integral accuracy reduced to 1.0D-05 until final iterations.
 Initial convergence to 1.0D-05 achieved.  Increase integral accuracy.
 SCF Done:  E(RB3LYP) =  -766.150592414     A.U. after   15 cycles
            NFock= 15  Conv=0.84D-08     -V/T= 2.0099
 QCSCF skips out because SCF is already converged.

 **********************************************************************

            Population analysis using the SCF density.

 **********************************************************************

 Orbital symmetries:
       Occupied  (A) (A) (A) (A) (A) (A) (A) (A) (A) (A) (A) (A)
                 (A) (A) (A) (A) (A) (A) (A) (A) (A) (A) (A) (A)
                 (A) (A) (A) (A) (A) (A) (A) (A) (A) (A) (A) (A)
                 (A) (A) (A) (A) (A) (A) (A) (A) (A) (A) (A) (A)
                 (A) (A) (A) (A) (A) (A) (A) (A) (A) (A) (A) (A)
                 (A) (A) (A)
       Virtual   (A) (A) (A) (A) (A) (A) (A) (A) (A) (A) (A) (A)
                 (A) (A) (A) (A) (A) (A) (A) (A) (A) (A) (A) (A)
                 (A) (A) (A) (A) (A) (A) (A) (A) (A) (A) (A) (A)
                 (A) (A) (A) (A) (A) (A) (A) (A) (A) (A) (A) (A)
                 (A) (A) (A) (A) (A) (A) (A) (A) (A) (A) (A) (A)
                 (A) (A) (A) (A) (A) (A) (A) (A) (A) (A) (A) (A)
                 (A) (A) (A) (A) (A) (A) (A) (A) (A) (A) (A) (A)
                 (A) (A) (A) (A) (A) (A) (A) (A) (A) (A) (A) (A)
                 (A) (A) (A) (A) (A) (A) (A) (A) (A) (A) (A) (A)
                 (A) (A) (A) (A) (A) (A) (A) (A) (A) (A) (A) (A)
                 (A) (A) (A) (A) (A) (A) (A) (A) (A) (A) (A) (A)
                 (A) (A) (A) (A) (A) (A) (A) (A) (A) (A) (A) (A)
                 (A) (A) (A) (A) (A) (A) (A) (A) (A) (A) (A) (A)
                 (A) (A) (A) (A) (A) (A) (A) (A) (A) (A) (A) (A)
                 (A) (A) (A) (A) (A) (A) (A) (A) (A) (A) (A) (A)
                 (A) (A) (A) (A) (A) (A) (A) (A) (A) (A) (A) (A)
                 (A) (A) (A) (A) (A) (A) (A) (A) (A) (A) (A) (A)
                 (A) (A) (A) (A) (A) (A) (A) (A) (A) (A) (A) (A)
                 (A) (A) (A) (A) (A) (A) (A) (A) (A) (A) (A) (A)
 The electronic state is 1-A.
 Alpha  occ. eigenvalues --  -19.18411 -19.15491 -14.35467 -14.35167 -10.28510
 Alpha  occ. eigenvalues --  -10.25476 -10.25379 -10.24605 -10.24553 -10.23160
 Alpha  occ. eigenvalues --  -10.22965 -10.20072 -10.19866 -10.18994 -10.18726
 Alpha  occ. eigenvalues --  -10.18488 -10.18101  -1.06853  -1.03416  -0.94607
 Alpha  occ. eigenvalues --   -0.86603  -0.84669  -0.80752  -0.76155  -0.75729
 Alpha  occ. eigenvalues --   -0.73244  -0.70068  -0.69876  -0.66898  -0.61809
 Alpha  occ. eigenvalues --   -0.60355  -0.58368  -0.54342  -0.53735  -0.51124
 Alpha  occ. eigenvalues --   -0.50451  -0.48990  -0.47912  -0.47566  -0.47278
 Alpha  occ. eigenvalues --   -0.45778  -0.43821  -0.43234  -0.42507  -0.42176
 Alpha  occ. eigenvalues --   -0.41086  -0.40016  -0.39560  -0.38897  -0.38181
 Alpha  occ. eigenvalues --   -0.37552  -0.36811  -0.36446  -0.35322  -0.33640
 Alpha  occ. eigenvalues --   -0.33097  -0.31650  -0.30845  -0.30074  -0.28735
 Alpha  occ. eigenvalues --   -0.26550  -0.22959  -0.21607
 Alpha virt. eigenvalues --   -0.01040  -0.00024   0.00776   0.01221   0.06501
 Alpha virt. eigenvalues --    0.08764   0.09212   0.09790   0.10561   0.11636
 Alpha virt. eigenvalues --    0.12209   0.12942   0.14008   0.14161   0.14717
 Alpha virt. eigenvalues --    0.14731   0.16177   0.16510   0.16529   0.17077
 Alpha virt. eigenvalues --    0.17560   0.17715   0.18539   0.18948   0.20433
 Alpha virt. eigenvalues --    0.21263   0.22301   0.22639   0.24769   0.26892
 Alpha virt. eigenvalues --    0.27344   0.27885   0.29863   0.30642   0.32622
 Alpha virt. eigenvalues --    0.36730   0.39174   0.40286   0.44670   0.48382
 Alpha virt. eigenvalues --    0.49196   0.50370   0.51283   0.51720   0.52738
 Alpha virt. eigenvalues --    0.52916   0.54515   0.54730   0.56061   0.56319
 Alpha virt. eigenvalues --    0.57750   0.58282   0.58842   0.60086   0.60714
 Alpha virt. eigenvalues --    0.61270   0.61564   0.62416   0.63097   0.64745
 Alpha virt. eigenvalues --    0.65719   0.66142   0.66940   0.67206   0.68311
 Alpha virt. eigenvalues --    0.70931   0.73923   0.74832   0.75668   0.76470
 Alpha virt. eigenvalues --    0.76609   0.78246   0.79411   0.80680   0.81965
 Alpha virt. eigenvalues --    0.82947   0.83507   0.84075   0.84345   0.84863
 Alpha virt. eigenvalues --    0.85742   0.86498   0.87230   0.87739   0.88813
 Alpha virt. eigenvalues --    0.89437   0.89927   0.90716   0.91663   0.91810
 Alpha virt. eigenvalues --    0.93072   0.93323   0.94892   0.96066   0.96200
 Alpha virt. eigenvalues --    0.97313   0.98962   1.01023   1.02013   1.03424
 Alpha virt. eigenvalues --    1.04004   1.05049   1.05694   1.06389   1.08463
 Alpha virt. eigenvalues --    1.12747   1.15768   1.16088   1.18231   1.19692
 Alpha virt. eigenvalues --    1.22128   1.23504   1.25281   1.26925   1.28469
 Alpha virt. eigenvalues --    1.31395   1.32502   1.35875   1.36925   1.38370
 Alpha virt. eigenvalues --    1.41047   1.44096   1.45107   1.46606   1.47575
 Alpha virt. eigenvalues --    1.47924   1.48959   1.50652   1.52014   1.52140
 Alpha virt. eigenvalues --    1.55176   1.58810   1.62370   1.63862   1.65174
 Alpha virt. eigenvalues --    1.67738   1.69349   1.72462   1.72884   1.76790
 Alpha virt. eigenvalues --    1.79331   1.80898   1.82598   1.84158   1.84459
 Alpha virt. eigenvalues --    1.86029   1.87421   1.87838   1.89990   1.91759
 Alpha virt. eigenvalues --    1.93293   1.94346   1.95152   1.95675   1.97922
 Alpha virt. eigenvalues --    1.98709   1.99464   2.01246   2.02092   2.04624
 Alpha virt. eigenvalues --    2.06100   2.07214   2.07919   2.09080   2.10448
 Alpha virt. eigenvalues --    2.11337   2.13168   2.15677   2.17272   2.17527
 Alpha virt. eigenvalues --    2.20067   2.21673   2.22140   2.23563   2.24825
 Alpha virt. eigenvalues --    2.26437   2.27528   2.29662   2.33816   2.34456
 Alpha virt. eigenvalues --    2.35375   2.35606   2.36991   2.39255   2.40616
 Alpha virt. eigenvalues --    2.43370   2.48587   2.50885   2.52689   2.56280
 Alpha virt. eigenvalues --    2.59138   2.61710   2.62761   2.63437   2.66351
 Alpha virt. eigenvalues --    2.67453   2.68318   2.71779   2.74096   2.75349
 Alpha virt. eigenvalues --    2.79761   2.81540   2.83646   2.89080   2.94283
 Alpha virt. eigenvalues --    2.97168   2.99052   3.01131   3.16737   3.19758
 Alpha virt. eigenvalues --    3.43434   3.93185   3.99508   4.02160   4.05411
 Alpha virt. eigenvalues --    4.10454   4.17931   4.20171   4.20650   4.25238
 Alpha virt. eigenvalues --    4.28902   4.31608   4.36231   4.36751   4.49999
 Alpha virt. eigenvalues --    4.54129   4.76604   4.85083
          Condensed to atoms (all electrons):
               1          2          3          4          5          6
     1  C    5.241316   0.351555  -0.061866  -0.013097   0.005574  -0.000068
     2  C    0.351555   4.817718   0.308914  -0.049288  -0.064411  -0.001459
     3  C   -0.061866   0.308914   5.048941   0.353675   0.234878  -0.056771
     4  C   -0.013097  -0.049288   0.353675   5.213804  -0.050860  -0.000519
     5  C    0.005574  -0.064411   0.234878  -0.050860   4.871446   0.718263
     6  N   -0.000068  -0.001459  -0.056771  -0.000519   0.718263   6.824385
     7  N    0.000459  -0.052764   0.294091  -0.060760  -0.058077  -0.003445
     8  C   -0.000616  -0.000380  -0.034459  -0.007350   0.002881  -0.000104
     9  C   -0.003966   0.001715  -0.001220   0.000016  -0.000341  -0.000002
    10  C   -0.000249  -0.000020  -0.000060   0.000016   0.000004   0.000000
    11  C    0.000036   0.000010   0.000021   0.000001   0.000000  -0.000000
    12  C   -0.000087  -0.000013   0.000142  -0.000167   0.000002   0.000000
    13  C   -0.001112  -0.000726  -0.005648  -0.000663   0.000005   0.000002
    14  O    0.000002  -0.000000   0.000000  -0.000000  -0.000000  -0.000000
    15  C   -0.000000  -0.000000  -0.000000  -0.000000   0.000000   0.000000
    16  O   -0.048257   0.262601  -0.042442   0.001310   0.008258  -0.001372
    17  C   -0.009348  -0.040428  -0.004463  -0.001628  -0.002760  -0.000508
    18  H    0.369280  -0.025227  -0.013755   0.004621  -0.000222  -0.000002
    19  H    0.362010  -0.027845   0.006582   0.000240  -0.000107   0.000000
    20  H    0.350641  -0.020825   0.002391  -0.001428   0.000074   0.000002
    21  H   -0.051555   0.386548  -0.051807   0.005750  -0.005105   0.000103
    22  H   -0.000967   0.000012  -0.023086   0.356666  -0.006548  -0.000055
    23  H    0.000311   0.004047  -0.020894   0.363374  -0.004825   0.000149
    24  H    0.002858  -0.006874  -0.024980   0.361264   0.005104   0.000001
    25  H   -0.000193  -0.003462  -0.032517   0.006202  -0.002523   0.001342
    26  H    0.000072  -0.000306   0.000225   0.000014  -0.000064  -0.000001
    27  H    0.000000   0.000000   0.000000   0.000000   0.000000   0.000000
    28  H   -0.000003  -0.000000  -0.000002   0.000002  -0.000000  -0.000000
    29  H   -0.000102   0.000187  -0.000471   0.000369  -0.000181  -0.000002
    30  H   -0.000000   0.000000  -0.000000   0.000000  -0.000000  -0.000000
    31  H    0.000000  -0.000000   0.000000  -0.000000   0.000000   0.000000
    32  H   -0.000000  -0.000000  -0.000000  -0.000000  -0.000000  -0.000000
    33  H   -0.000536  -0.006932   0.007834  -0.004261   0.001208   0.001769
    34  H    0.006609  -0.006233  -0.002031  -0.000334   0.000533  -0.000011
    35  H   -0.000042   0.004742  -0.000221   0.000192  -0.000002   0.000010
               7          8          9         10         11         12
     1  C    0.000459  -0.000616  -0.003966  -0.000249   0.000036  -0.000087
     2  C   -0.052764  -0.000380   0.001715  -0.000020   0.000010  -0.000013
     3  C    0.294091  -0.034459  -0.001220  -0.000060   0.000021   0.000142
     4  C   -0.060760  -0.007350   0.000016   0.000016   0.000001  -0.000167
     5  C   -0.058077   0.002881  -0.000341   0.000004   0.000000   0.000002
     6  N   -0.003445  -0.000104  -0.000002   0.000000  -0.000000   0.000000
     7  N    7.105898   0.273090  -0.067867   0.007304   0.000497   0.005269
     8  C    0.273090   4.544592   0.514201  -0.003922  -0.036544  -0.009923
     9  C   -0.067867   0.514201   5.193954   0.494690  -0.083855  -0.040131
    10  C    0.007304  -0.003922   0.494690   4.527648   0.471276   0.005248
    11  C    0.000497  -0.036544  -0.083855   0.471276   5.122506   0.501378
    12  C    0.005269  -0.009923  -0.040131   0.005248   0.501378   4.876049
    13  C   -0.062134   0.549223  -0.067292  -0.038935  -0.041858   0.528405
    14  O   -0.000043   0.002373  -0.045809   0.272949  -0.064161   0.003590
    15  C    0.000002  -0.000088   0.003810  -0.042998  -0.006026   0.000321
    16  O    0.002074  -0.000023   0.000001   0.000000   0.000000  -0.000000
    17  C   -0.000000   0.000005   0.000001  -0.000000  -0.000000  -0.000000
    18  H    0.000164   0.000076   0.000155   0.000010  -0.000001  -0.000026
    19  H   -0.000145   0.000040   0.000175  -0.000019  -0.000010   0.000005
    20  H   -0.002959   0.005619   0.004322   0.000145   0.000432   0.000237
    21  H   -0.001050  -0.001952   0.002432   0.000110   0.000003  -0.000010
    22  H    0.003683   0.000225   0.000004  -0.000000  -0.000000  -0.000000
    23  H    0.001022  -0.000418   0.000003  -0.000001   0.000000   0.000057
    24  H   -0.002577   0.001688  -0.000086  -0.000007  -0.000016   0.000278
    25  H    0.304201  -0.040260  -0.004627   0.000365  -0.000009  -0.000161
    26  H   -0.008262  -0.047797   0.334660  -0.030855   0.007979  -0.000128
    27  H    0.000004   0.000756   0.004782  -0.046357   0.354141  -0.040819
    28  H   -0.000130   0.003362   0.000936   0.002936  -0.038512   0.356640
    29  H   -0.004542  -0.040578   0.006204   0.000376   0.005429  -0.044014
    30  H    0.000000  -0.000001   0.000044  -0.004892   0.004941  -0.000147
    31  H   -0.000000   0.000009   0.000070  -0.004860   0.004978  -0.000126
    32  H   -0.000000   0.000001  -0.000095   0.003230   0.000183   0.000001
    33  H   -0.000034  -0.000002  -0.000000  -0.000000  -0.000000   0.000000
    34  H    0.000002   0.000003  -0.000000  -0.000000  -0.000000  -0.000000
    35  H    0.000002  -0.000000   0.000000   0.000000   0.000000  -0.000000
              13         14         15         16         17         18
     1  C   -0.001112   0.000002  -0.000000  -0.048257  -0.009348   0.369280
     2  C   -0.000726  -0.000000  -0.000000   0.262601  -0.040428  -0.025227
     3  C   -0.005648   0.000000  -0.000000  -0.042442  -0.004463  -0.013755
     4  C   -0.000663  -0.000000  -0.000000   0.001310  -0.001628   0.004621
     5  C    0.000005  -0.000000   0.000000   0.008258  -0.002760  -0.000222
     6  N    0.000002  -0.000000   0.000000  -0.001372  -0.000508  -0.000002
     7  N   -0.062134  -0.000043   0.000002   0.002074  -0.000000   0.000164
     8  C    0.549223   0.002373  -0.000088  -0.000023   0.000005   0.000076
     9  C   -0.067292  -0.045809   0.003810   0.000001   0.000001   0.000155
    10  C   -0.038935   0.272949  -0.042998   0.000000  -0.000000   0.000010
    11  C   -0.041858  -0.064161  -0.006026   0.000000  -0.000000  -0.000001
    12  C    0.528405   0.003590   0.000321  -0.000000  -0.000000  -0.000026
    13  C    4.972971   0.000302  -0.000002  -0.000005  -0.000001  -0.000214
    14  O    0.000302   8.203120   0.247078  -0.000000  -0.000000  -0.000000
    15  C   -0.000002   0.247078   4.896480   0.000000   0.000000  -0.000000
    16  O   -0.000005  -0.000000   0.000000   8.185968   0.252678  -0.002927
    17  C   -0.000001  -0.000000   0.000000   0.252678   4.903919   0.000792
    18  H   -0.000214  -0.000000  -0.000000  -0.002927   0.000792   0.567223
    19  H    0.000091   0.000000   0.000000   0.001656  -0.000356  -0.033032
    20  H    0.001498  -0.000037  -0.000002   0.002919   0.000287  -0.027893
    21  H   -0.000037  -0.000003   0.000000  -0.039249   0.006152   0.005327
    22  H    0.000142   0.000000  -0.000000  -0.000393   0.002114   0.000126
    23  H   -0.000634   0.000000  -0.000000  -0.000058   0.000013   0.000060
    24  H    0.003941   0.000000   0.000000   0.000037   0.000017   0.001010
    25  H    0.005761  -0.000006   0.000000  -0.000015   0.000010  -0.000004
    26  H    0.006208   0.000114  -0.000177   0.000000   0.000000   0.000001
    27  H    0.004564  -0.007271   0.005722  -0.000000   0.000000   0.000000
    28  H   -0.035558  -0.000047  -0.000007   0.000000  -0.000000  -0.000000
    29  H    0.350596   0.000002  -0.000000  -0.000000   0.000000  -0.000032
    30  H   -0.000004  -0.036063   0.364734   0.000000  -0.000000   0.000000
    31  H   -0.000011  -0.035412   0.364918  -0.000000   0.000000  -0.000000
    32  H    0.000000  -0.030997   0.384196  -0.000000  -0.000000   0.000000
    33  H    0.000001   0.000000  -0.000000  -0.041405   0.364140  -0.000113
    34  H   -0.000000   0.000000   0.000000  -0.038358   0.357693   0.002846
    35  H   -0.000000   0.000000   0.000000  -0.032565   0.384949  -0.000034
              19         20         21         22         23         24
     1  C    0.362010   0.350641  -0.051555  -0.000967   0.000311   0.002858
     2  C   -0.027845  -0.020825   0.386548   0.000012   0.004047  -0.006874
     3  C    0.006582   0.002391  -0.051807  -0.023086  -0.020894  -0.024980
     4  C    0.000240  -0.001428   0.005750   0.356666   0.363374   0.361264
     5  C   -0.000107   0.000074  -0.005105  -0.006548  -0.004825   0.005104
     6  N    0.000000   0.000002   0.000103  -0.000055   0.000149   0.000001
     7  N   -0.000145  -0.002959  -0.001050   0.003683   0.001022  -0.002577
     8  C    0.000040   0.005619  -0.001952   0.000225  -0.000418   0.001688
     9  C    0.000175   0.004322   0.002432   0.000004   0.000003  -0.000086
    10  C   -0.000019   0.000145   0.000110  -0.000000  -0.000001  -0.000007
    11  C   -0.000010   0.000432   0.000003  -0.000000   0.000000  -0.000016
    12  C    0.000005   0.000237  -0.000010  -0.000000   0.000057   0.000278
    13  C    0.000091   0.001498  -0.000037   0.000142  -0.000634   0.003941
    14  O    0.000000  -0.000037  -0.000003   0.000000   0.000000   0.000000
    15  C    0.000000  -0.000002   0.000000  -0.000000  -0.000000   0.000000
    16  O    0.001656   0.002919  -0.039249  -0.000393  -0.000058   0.000037
    17  C   -0.000356   0.000287   0.006152   0.002114   0.000013   0.000017
    18  H   -0.033032  -0.027893   0.005327   0.000126   0.000060   0.001010
    19  H    0.558353  -0.023909  -0.005233  -0.000013  -0.000004   0.000019
    20  H   -0.023909   0.525108  -0.001635   0.000106  -0.000001   0.000492
    21  H   -0.005233  -0.001635   0.597306  -0.000081  -0.000125  -0.000003
    22  H   -0.000013   0.000106  -0.000081   0.545412  -0.024951  -0.026833
    23  H   -0.000004  -0.000001  -0.000125  -0.024951   0.526911  -0.029247
    24  H    0.000019   0.000492  -0.000003  -0.026833  -0.029247   0.538610
    25  H    0.000009   0.000074   0.004906  -0.000151  -0.000044  -0.000081
    26  H   -0.000003   0.000052   0.001295  -0.000000  -0.000000  -0.000003
    27  H   -0.000000   0.000002  -0.000000  -0.000000   0.000000   0.000000
    28  H    0.000000   0.000002   0.000000   0.000000  -0.000002  -0.000006
    29  H    0.000001   0.000054  -0.000012   0.000188   0.002145   0.000492
    30  H   -0.000000   0.000003   0.000000  -0.000000   0.000000  -0.000000
    31  H    0.000000  -0.000000  -0.000000   0.000000  -0.000000   0.000000
    32  H    0.000000   0.000000  -0.000000   0.000000   0.000000  -0.000000
    33  H    0.000157   0.000031  -0.000246   0.004856   0.000200   0.000084
    34  H    0.000128  -0.000477  -0.000173   0.000308   0.000014  -0.000153
    35  H   -0.000137   0.000001  -0.000133  -0.000008  -0.000003  -0.000003
              25         26         27         28         29         30
     1  C   -0.000193   0.000072   0.000000  -0.000003  -0.000102  -0.000000
     2  C   -0.003462  -0.000306   0.000000  -0.000000   0.000187   0.000000
     3  C   -0.032517   0.000225   0.000000  -0.000002  -0.000471  -0.000000
     4  C    0.006202   0.000014   0.000000   0.000002   0.000369   0.000000
     5  C   -0.002523  -0.000064   0.000000  -0.000000  -0.000181  -0.000000
     6  N    0.001342  -0.000001   0.000000  -0.000000  -0.000002  -0.000000
     7  N    0.304201  -0.008262   0.000004  -0.000130  -0.004542   0.000000
     8  C   -0.040260  -0.047797   0.000756   0.003362  -0.040578  -0.000001
     9  C   -0.004627   0.334660   0.004782   0.000936   0.006204   0.000044
    10  C    0.000365  -0.030855  -0.046357   0.002936   0.000376  -0.004892
    11  C   -0.000009   0.007979   0.354141  -0.038512   0.005429   0.004941
    12  C   -0.000161  -0.000128  -0.040819   0.356640  -0.044014  -0.000147
    13  C    0.005761   0.006208   0.004564  -0.035558   0.350596  -0.000004
    14  O   -0.000006   0.000114  -0.007271  -0.000047   0.000002  -0.036063
    15  C    0.000000  -0.000177   0.005722  -0.000007  -0.000000   0.364734
    16  O   -0.000015   0.000000  -0.000000   0.000000  -0.000000   0.000000
    17  C    0.000010   0.000000   0.000000  -0.000000   0.000000  -0.000000
    18  H   -0.000004   0.000001   0.000000  -0.000000  -0.000032   0.000000
    19  H    0.000009  -0.000003  -0.000000   0.000000   0.000001  -0.000000
    20  H    0.000074   0.000052   0.000002   0.000002   0.000054   0.000003
    21  H    0.004906   0.001295  -0.000000   0.000000  -0.000012   0.000000
    22  H   -0.000151  -0.000000  -0.000000   0.000000   0.000188  -0.000000
    23  H   -0.000044  -0.000000   0.000000  -0.000002   0.002145   0.000000
    24  H   -0.000081  -0.000003   0.000000  -0.000006   0.000492  -0.000000
    25  H    0.429985   0.006650  -0.000001   0.000004  -0.000185  -0.000000
    26  H    0.006650   0.599764  -0.000165   0.000014  -0.000159   0.000035
    27  H   -0.000001  -0.000165   0.596804  -0.005588  -0.000179   0.001814
    28  H    0.000004   0.000014  -0.005588   0.586166  -0.005724   0.000003
    29  H   -0.000185  -0.000159  -0.000179  -0.005724   0.600804   0.000000
    30  H   -0.000000   0.000035   0.001814   0.000003   0.000000   0.595905
    31  H    0.000000   0.000029   0.001574   0.000002  -0.000000  -0.045798
    32  H   -0.000000  -0.000029  -0.000099  -0.000000  -0.000000  -0.034014
    33  H   -0.000002  -0.000000  -0.000000  -0.000000   0.000000  -0.000000
    34  H   -0.000001  -0.000000  -0.000000   0.000000   0.000000  -0.000000
    35  H   -0.000000  -0.000000  -0.000000   0.000000  -0.000000  -0.000000
              31         32         33         34         35
     1  C    0.000000  -0.000000  -0.000536   0.006609  -0.000042
     2  C   -0.000000  -0.000000  -0.006932  -0.006233   0.004742
     3  C    0.000000  -0.000000   0.007834  -0.002031  -0.000221
     4  C   -0.000000  -0.000000  -0.004261  -0.000334   0.000192
     5  C    0.000000  -0.000000   0.001208   0.000533  -0.000002
     6  N    0.000000  -0.000000   0.001769  -0.000011   0.000010
     7  N   -0.000000  -0.000000  -0.000034   0.000002   0.000002
     8  C    0.000009   0.000001  -0.000002   0.000003  -0.000000
     9  C    0.000070  -0.000095  -0.000000  -0.000000   0.000000
    10  C   -0.004860   0.003230  -0.000000  -0.000000   0.000000
    11  C    0.004978   0.000183  -0.000000  -0.000000   0.000000
    12  C   -0.000126   0.000001   0.000000  -0.000000  -0.000000
    13  C   -0.000011   0.000000   0.000001  -0.000000  -0.000000
    14  O   -0.035412  -0.030997   0.000000   0.000000   0.000000
    15  C    0.364918   0.384196  -0.000000   0.000000   0.000000
    16  O   -0.000000  -0.000000  -0.041405  -0.038358  -0.032565
    17  C    0.000000  -0.000000   0.364140   0.357693   0.384949
    18  H   -0.000000   0.000000  -0.000113   0.002846  -0.000034
    19  H    0.000000   0.000000   0.000157   0.000128  -0.000137
    20  H   -0.000000   0.000000   0.000031  -0.000477   0.000001
    21  H   -0.000000  -0.000000  -0.000246  -0.000173  -0.000133
    22  H    0.000000   0.000000   0.004856   0.000308  -0.000008
    23  H   -0.000000   0.000000   0.000200   0.000014  -0.000003
    24  H    0.000000  -0.000000   0.000084  -0.000153  -0.000003
    25  H    0.000000  -0.000000  -0.000002  -0.000001  -0.000000
    26  H    0.000029  -0.000029  -0.000000  -0.000000  -0.000000
    27  H    0.001574  -0.000099  -0.000000  -0.000000  -0.000000
    28  H    0.000002  -0.000000  -0.000000   0.000000   0.000000
    29  H   -0.000000  -0.000000   0.000000   0.000000  -0.000000
    30  H   -0.045798  -0.034014  -0.000000  -0.000000  -0.000000
    31  H    0.592559  -0.033382   0.000000   0.000000   0.000000
    32  H   -0.033382   0.540588   0.000000  -0.000000  -0.000000
    33  H    0.000000   0.000000   0.609303  -0.049809  -0.035502
    34  H    0.000000  -0.000000  -0.049809   0.628231  -0.033955
    35  H    0.000000  -0.000000  -0.035502  -0.033955   0.547360
 Mulliken charges:
               1
     1  C   -0.498661
     2  C    0.169145
     3  C    0.118999
     4  C   -0.477161
     5  C    0.347796
     6  N   -0.481708
     7  N   -0.672971
     8  C    0.326275
     9  C   -0.246885
    10  C    0.386868
    11  C   -0.202816
    12  C   -0.141869
    13  C   -0.168878
    14  O   -0.509680
    15  C   -0.217960
    16  O   -0.470432
    17  C   -0.213280
    18  H    0.151793
    19  H    0.161346
    20  H    0.184674
    21  H    0.148477
    22  H    0.169241
    23  H    0.182900
    24  H    0.174973
    25  H    0.324730
    26  H    0.130836
    27  H    0.130316
    28  H    0.135512
    29  H    0.129333
    30  H    0.153442
    31  H    0.155451
    32  H    0.170416
    33  H    0.149260
    34  H    0.135168
    35  H    0.165350
 Sum of Mulliken charges =   0.00000
 Mulliken charges with hydrogens summed into heavy atoms:
               1
     1  C   -0.000848
     2  C    0.317622
     3  C    0.118999
     4  C    0.049953
     5  C    0.347796
     6  N   -0.481708
     7  N   -0.348241
     8  C    0.326275
     9  C   -0.116049
    10  C    0.386868
    11  C   -0.072500
    12  C   -0.006357
    13  C   -0.039544
    14  O   -0.509680
    15  C    0.261349
    16  O   -0.470432
    17  C    0.236498
 Electronic spatial extent (au):  <R**2>=           5039.7515
 Charge=             -0.0000 electrons
 Dipole moment (field-independent basis, Debye):
    X=             -4.0037    Y=              1.2785    Z=             -4.0358  Tot=              5.8268
 Quadrupole moment (field-independent basis, Debye-Ang):
   XX=            -97.9443   YY=           -105.5539   ZZ=           -102.7459
   XY=              1.7096   XZ=            -11.8608   YZ=              4.5587
 Traceless Quadrupole moment (field-independent basis, Debye-Ang):
   XX=              4.1371   YY=             -3.4725   ZZ=             -0.6646
   XY=              1.7096   XZ=            -11.8608   YZ=              4.5587
 Octapole moment (field-independent basis, Debye-Ang**2):
  XXX=           -138.5976  YYY=             16.6492  ZZZ=             -6.0956  XYY=            -14.7173
  XXY=             49.0675  XXZ=            -66.2566  XZZ=            -19.3561  YZZ=              8.4048
  YYZ=            -15.3895  XYZ=              5.4378
 Hexadecapole moment (field-independent basis, Debye-Ang**3):
 XXXX=          -4517.1455 YYYY=          -1005.6417 ZZZZ=           -739.3615 XXXY=             17.0634
 XXXZ=           -245.9609 YYYX=             -8.8757 YYYZ=             24.0532 ZZZX=            -59.6724
 ZZZY=             30.3135 XXYY=           -996.9461 XXZZ=          -1025.6391 YYZZ=           -288.2176
 XXYZ=             54.7613 YYXZ=            -38.1655 ZZXY=             45.8761
 N-N= 1.213946944246D+03 E-N=-4.208221497680D+03  KE= 7.586118203608D+02
 Calling FoFJK, ICntrl=      2127 FMM=F ISym2X=0 I1Cent= 0 IOpClX= 0 NMat=1 NMatS=1 NMatT=0.
 ***** Axes restored to original set *****
 -------------------------------------------------------------------
 Center     Atomic                   Forces (Hartrees/Bohr)
 Number     Number              X              Y              Z
 -------------------------------------------------------------------
      1        6          -0.006480350   -0.006644667    0.026313915
      2        6          -0.003209178    0.004818688    0.016869650
      3        6           0.008820578    0.000892354   -0.043457695
      4        6          -0.003503925   -0.008969814   -0.002764109
      5        6          -0.054809333    0.103511451   -0.105951525
      6        7           0.058523752   -0.110398255    0.124101160
      7        7          -0.014328332    0.018759618   -0.013528304
      8        6           0.008039339   -0.005102463    0.021375020
      9        6          -0.000489182    0.002814663   -0.001565011
     10        6          -0.002062147    0.010371708   -0.005362510
     11        6           0.005344662   -0.012652518    0.004559099
     12        6          -0.004671801    0.011043541   -0.002142677
     13        6          -0.001710260   -0.018728339   -0.004327350
     14        8           0.002443946   -0.005013217    0.001151220
     15        6           0.001984877    0.004148661    0.002037903
     16        8           0.006506351    0.000890711   -0.005688425
     17        6           0.001561615    0.002049119   -0.001160788
     18        1           0.001006575   -0.000557081   -0.003439660
     19        1           0.001195335    0.002727847   -0.001506878
     20        1           0.002368867    0.000108598   -0.005535729
     21        1          -0.003079757    0.001019862   -0.005029975
     22        1           0.001473252    0.003361872    0.002061896
     23        1           0.002327444    0.005503284    0.002192846
     24        1           0.002470424    0.004010941    0.001551249
     25        1          -0.006192598   -0.003754577    0.002185395
     26        1          -0.000372704   -0.000746524    0.001092024
     27        1           0.001039112    0.002356220    0.000864514
     28        1           0.000348354    0.001227467    0.000344352
     29        1          -0.000002430    0.002866104    0.000337770
     30        1          -0.000143137   -0.003761127   -0.001123854
     31        1          -0.001205717   -0.003652398   -0.000116416
     32        1          -0.003361469    0.002821709   -0.002410783
     33        1          -0.002296668   -0.003351030   -0.002870221
     34        1          -0.001156440   -0.004277937    0.000128868
     35        1           0.003620944    0.002305529    0.000815028
 -------------------------------------------------------------------
 Cartesian Forces:  Max     0.124101160 RMS     0.024261967

 GradGradGradGradGradGradGradGradGradGradGradGradGradGradGradGradGradGrad
 Berny optimization.
 FormGI is forming the generalized inverse of G from B-inverse, IUseBI=4.
 Internal  Forces:  Max     0.176107088 RMS     0.014289484
 Search for a local minimum.
 Step number   1 out of a maximum of  178
 All quantities printed in internal units (Hartrees-Bohrs-Radians)
 Mixed Optimization -- RFO/linear search
 Second derivative matrix not updated -- first step.
 ITU=  0
     Eigenvalues ---    0.00230   0.00230   0.00360   0.00652   0.01226
     Eigenvalues ---    0.01400   0.01465   0.01810   0.01982   0.02012
     Eigenvalues ---    0.02065   0.02084   0.02116   0.02132   0.02134
     Eigenvalues ---    0.02142   0.02146   0.02156   0.02173   0.03531
     Eigenvalues ---    0.03531   0.03816   0.03947   0.05068   0.05094
     Eigenvalues ---    0.05107   0.05360   0.05827   0.06246   0.07158
     Eigenvalues ---    0.09459   0.09940   0.09990   0.10545   0.10546
     Eigenvalues ---    0.13747   0.15986   0.15999   0.15999   0.16000
     Eigenvalues ---    0.16000   0.16000   0.16000   0.16000   0.16000
     Eigenvalues ---    0.16000   0.16000   0.16000   0.16000   0.16000
     Eigenvalues ---    0.16000   0.16000   0.17313   0.19119   0.19600
     Eigenvalues ---    0.21019   0.22000   0.23020   0.23463   0.23485
     Eigenvalues ---    0.24994   0.25000   0.25000   0.25000   0.28029
     Eigenvalues ---    0.29360   0.30367   0.30400   0.31488   0.33895
     Eigenvalues ---    0.33900   0.33941   0.34243   0.34246   0.34318
     Eigenvalues ---    0.34351   0.34353   0.34381   0.34472   0.34595
     Eigenvalues ---    0.34641   0.35048   0.35088   0.35151   0.35278
     Eigenvalues ---    0.35434   0.40250   0.41525   0.42155   0.42395
     Eigenvalues ---    0.42892   0.43897   0.45553   0.45826   0.46316
     Eigenvalues ---    0.46790   0.47129   0.51369   0.79312
 RFO step:  Lambda=-4.90331444D-02 EMin= 2.30000000D-03
 Linear search not attempted -- first point.
 Iteration  1 RMS(Cart)=  0.06770720 RMS(Int)=  0.00154771
 Iteration  2 RMS(Cart)=  0.00263787 RMS(Int)=  0.00030412
 Iteration  3 RMS(Cart)=  0.00000476 RMS(Int)=  0.00030411
 Iteration  4 RMS(Cart)=  0.00000000 RMS(Int)=  0.00030411
 Variable       Old X    -DE/DX   Delta X   Delta X   Delta X     New X
                                 (Linear)    (Quad)   (Total)
    R1        2.85091   0.01378   0.00000   0.03787   0.03787   2.88878
    R2        2.06738  -0.00024   0.00000  -0.00061  -0.00061   2.06677
    R3        2.07429  -0.00036   0.00000  -0.00093  -0.00093   2.07337
    R4        2.05598   0.00216   0.00000   0.00542   0.00542   2.06139
    R5        2.89257   0.01694   0.00000   0.04944   0.04944   2.94202
    R6        2.71215  -0.00956   0.00000  -0.02118  -0.02118   2.69097
    R7        2.07507  -0.00239   0.00000  -0.00615  -0.00615   2.06893
    R8        2.92075  -0.00520   0.00000  -0.01579  -0.01579   2.90495
    R9        2.87237  -0.01836   0.00000  -0.05205  -0.05205   2.82032
   R10        2.87173  -0.01591   0.00000  -0.04506  -0.04506   2.82667
   R11        2.06693  -0.00097   0.00000  -0.00246  -0.00246   2.06446
   R12        2.07498  -0.00344   0.00000  -0.00886  -0.00886   2.06612
   R13        2.06542  -0.00128   0.00000  -0.00325  -0.00325   2.06216
   R14        2.38289  -0.17611   0.00000  -0.20912  -0.20912   2.17377
   R15        2.62878   0.01743   0.00000   0.03349   0.03349   2.66227
   R16        1.93278  -0.00616   0.00000  -0.01262  -0.01262   1.92016
   R17        2.65177  -0.00122   0.00000  -0.00230  -0.00231   2.64946
   R18        2.63542   0.00885   0.00000   0.01721   0.01721   2.65263
   R19        2.64582  -0.00060   0.00000  -0.00105  -0.00106   2.64476
   R20        2.05532  -0.00067   0.00000  -0.00168  -0.00168   2.05364
   R21        2.63055   0.00492   0.00000   0.00949   0.00948   2.64003
   R22        2.58508  -0.00323   0.00000  -0.00574  -0.00574   2.57934
   R23        2.63755   0.00158   0.00000   0.00294   0.00295   2.64050
   R24        2.04977  -0.00036   0.00000  -0.00088  -0.00088   2.04888
   R25        2.64089  -0.00467   0.00000  -0.00930  -0.00929   2.63160
   R26        2.05430  -0.00127   0.00000  -0.00317  -0.00317   2.05113
   R27        2.05226  -0.00146   0.00000  -0.00364  -0.00364   2.04862
   R28        2.68726  -0.00243   0.00000  -0.00517  -0.00517   2.68209
   R29        2.06917   0.00149   0.00000   0.00380   0.00380   2.07297
   R30        2.06922   0.00134   0.00000   0.00342   0.00342   2.07264
   R31        2.06796  -0.00135   0.00000  -0.00345  -0.00345   2.06451
   R32        2.67804   0.00001   0.00000   0.00003   0.00003   2.67806
   R33        2.06262   0.00397   0.00000   0.01003   0.01003   2.07265
   R34        2.06337   0.00366   0.00000   0.00926   0.00926   2.07263
   R35        2.06743  -0.00064   0.00000  -0.00163  -0.00163   2.06580
    A1        1.97747  -0.00070   0.00000  -0.00368  -0.00391   1.97356
    A2        1.90202  -0.00180   0.00000  -0.00411  -0.00416   1.89785
    A3        2.00483  -0.00657   0.00000  -0.03573  -0.03602   1.96881
    A4        1.82772   0.00353   0.00000   0.02542   0.02543   1.85315
    A5        1.88517   0.00250   0.00000   0.00481   0.00441   1.88957
    A6        1.85447   0.00427   0.00000   0.02055   0.02044   1.87491
    A7        1.91124   0.01616   0.00000   0.07073   0.07106   1.98229
    A8        1.94496  -0.00067   0.00000   0.00873   0.00974   1.95469
    A9        1.86414  -0.00217   0.00000   0.00804   0.00855   1.87269
   A10        2.05189  -0.01241   0.00000  -0.05374  -0.05502   1.99686
   A11        1.88195  -0.00425   0.00000  -0.02872  -0.03034   1.85161
   A12        1.79643   0.00266   0.00000  -0.00807  -0.00959   1.78685
   A13        2.02920   0.00157   0.00000   0.00335   0.00336   2.03257
   A14        1.94951  -0.00574   0.00000  -0.03578  -0.03572   1.91379
   A15        1.94121   0.00007   0.00000  -0.00200  -0.00200   1.93921
   A16        1.83327   0.00294   0.00000   0.01781   0.01770   1.85097
   A17        1.91304  -0.00147   0.00000   0.00019   0.00016   1.91320
   A18        1.77836   0.00286   0.00000   0.01912   0.01897   1.79733
   A19        1.95823  -0.00308   0.00000  -0.01455  -0.01472   1.94351
   A20        1.93579  -0.00546   0.00000  -0.02542  -0.02564   1.91014
   A21        1.97388  -0.00471   0.00000  -0.02341  -0.02366   1.95022
   A22        1.85905   0.00497   0.00000   0.02546   0.02533   1.88438
   A23        1.86976   0.00408   0.00000   0.01829   0.01811   1.88787
   A24        1.86043   0.00541   0.00000   0.02550   0.02520   1.88563
   A25        2.17705  -0.01063   0.00000  -0.03946  -0.03957   2.13749
   A26        1.90643   0.00013   0.00000  -0.00827  -0.00823   1.89820
   A27        1.91250   0.00688   0.00000   0.02712   0.02679   1.93929
   A28        2.09112   0.00106   0.00000   0.00338   0.00328   2.09440
   A29        2.13256  -0.00369   0.00000  -0.01251  -0.01261   2.11995
   A30        2.05930   0.00267   0.00000   0.00962   0.00953   2.06883
   A31        2.12427  -0.00247   0.00000  -0.00832  -0.00834   2.11593
   A32        2.09663   0.00171   0.00000   0.00645   0.00645   2.10308
   A33        2.06225   0.00076   0.00000   0.00192   0.00192   2.06417
   A34        2.08172   0.00301   0.00000   0.01057   0.01054   2.09226
   A35        1.99999   0.00358   0.00000   0.01170   0.01170   2.01169
   A36        2.20147  -0.00659   0.00000  -0.02231  -0.02231   2.17916
   A37        2.09080  -0.00400   0.00000  -0.01478  -0.01478   2.07603
   A38        2.12931  -0.00076   0.00000  -0.00582  -0.00583   2.12348
   A39        2.06305   0.00476   0.00000   0.02058   0.02058   2.08363
   A40        2.10090   0.00471   0.00000   0.01733   0.01735   2.11825
   A41        2.09249  -0.00274   0.00000  -0.01053  -0.01055   2.08194
   A42        2.08975  -0.00197   0.00000  -0.00687  -0.00690   2.08285
   A43        2.10932  -0.00392   0.00000  -0.01441  -0.01439   2.09493
   A44        2.10322  -0.00056   0.00000  -0.00483  -0.00485   2.09837
   A45        2.06983   0.00448   0.00000   0.01934   0.01933   2.08916
   A46        2.04047   0.00127   0.00000   0.00426   0.00426   2.04473
   A47        1.93898   0.00152   0.00000   0.00646   0.00649   1.94547
   A48        1.94007   0.00110   0.00000   0.00441   0.00444   1.94451
   A49        1.88095  -0.00637   0.00000  -0.02891  -0.02887   1.85208
   A50        1.94116  -0.00340   0.00000  -0.01902  -0.01901   1.92215
   A51        1.87970   0.00353   0.00000   0.01852   0.01857   1.89827
   A52        1.87991   0.00367   0.00000   0.01910   0.01913   1.89904
   A53        2.07093  -0.00165   0.00000  -0.00553  -0.00553   2.06541
   A54        1.93537   0.00399   0.00000   0.01960   0.01960   1.95497
   A55        1.95736   0.00241   0.00000   0.01146   0.01143   1.96879
   A56        1.88064  -0.00708   0.00000  -0.03429  -0.03420   1.84644
   A57        1.93276  -0.00315   0.00000  -0.01432  -0.01440   1.91836
   A58        1.87305   0.00182   0.00000   0.00889   0.00901   1.88206
   A59        1.88106   0.00181   0.00000   0.00761   0.00766   1.88871
   A60        3.14160   0.00026   0.00000   0.00303   0.00303   3.14463
   A61        3.14159   0.00119   0.00000   0.01405   0.01405   3.15564
    D1       -1.14793   0.00355   0.00000   0.01797   0.01767  -1.13026
    D2        1.15237  -0.00019   0.00000   0.01201   0.01247   1.16484
    D3        3.10184   0.00144   0.00000   0.01108   0.01060   3.11244
    D4        3.10810   0.00076   0.00000  -0.00870  -0.00886   3.09924
    D5       -0.87478  -0.00299   0.00000  -0.01467  -0.01406  -0.88884
    D6        1.07469  -0.00136   0.00000  -0.01560  -0.01593   1.05876
    D7        1.03023   0.00086   0.00000  -0.00878  -0.00891   1.02133
    D8       -2.95265  -0.00288   0.00000  -0.01475  -0.01411  -2.96675
    D9       -1.00318  -0.00125   0.00000  -0.01568  -0.01598  -1.01915
   D10        0.77128  -0.00075   0.00000  -0.00482  -0.00503   0.76625
   D11        2.87466  -0.00025   0.00000  -0.00722  -0.00743   2.86723
   D12       -1.43442  -0.00008   0.00000  -0.00612  -0.00629  -1.44072
   D13       -1.47120  -0.00436   0.00000  -0.03770  -0.03679  -1.50798
   D14        0.63219  -0.00386   0.00000  -0.04011  -0.03919   0.59300
   D15        2.60629  -0.00369   0.00000  -0.03900  -0.03805   2.56823
   D16        2.79340   0.00289   0.00000   0.02635   0.02561   2.81900
   D17       -1.38641   0.00340   0.00000   0.02395   0.02320  -1.36320
   D18        0.58769   0.00356   0.00000   0.02505   0.02434   0.61203
   D19       -1.11733  -0.00519   0.00000  -0.03244  -0.03213  -1.14946
   D20        1.10904   0.00632   0.00000   0.02967   0.02921   1.13826
   D21       -3.10933  -0.00382   0.00000  -0.04117  -0.04103   3.13283
   D22        1.09320  -0.00198   0.00000  -0.01843  -0.01843   1.07477
   D23       -3.11326  -0.00143   0.00000  -0.01306  -0.01312  -3.12638
   D24       -1.02426  -0.00157   0.00000  -0.01433  -0.01431  -1.03857
   D25       -1.07136   0.00213   0.00000   0.01185   0.01190  -1.05946
   D26        1.00536   0.00268   0.00000   0.01722   0.01722   1.02258
   D27        3.09437   0.00254   0.00000   0.01596   0.01603   3.11039
   D28       -2.97025  -0.00190   0.00000  -0.01829  -0.01830  -2.98855
   D29       -0.89353  -0.00136   0.00000  -0.01291  -0.01298  -0.90651
   D30        1.19547  -0.00149   0.00000  -0.01418  -0.01417   1.18130
   D31        1.11219   0.00218   0.00000   0.01316   0.01335   1.12555
   D32       -1.19785   0.00246   0.00000   0.02255   0.02240  -1.17544
   D33       -1.15609   0.00122   0.00000   0.01013   0.01033  -1.14577
   D34        2.81705   0.00150   0.00000   0.01951   0.01937   2.83643
   D35       -3.09142  -0.00287   0.00000  -0.01874  -0.01863  -3.11005
   D36        0.88173  -0.00259   0.00000  -0.00936  -0.00958   0.87214
   D37       -1.89151  -0.00041   0.00000  -0.01576  -0.01550  -1.90701
   D38        1.22776   0.00143   0.00000   0.01052   0.01065   1.23841
   D39        0.41617  -0.00334   0.00000  -0.03901  -0.03913   0.37704
   D40       -2.74773  -0.00150   0.00000  -0.01272  -0.01298  -2.76072
   D41        3.10979   0.00197   0.00000   0.02887   0.02897   3.13876
   D42       -0.02197   0.00159   0.00000   0.02331   0.02344   0.00146
   D43       -0.01042   0.00029   0.00000   0.00395   0.00386  -0.00656
   D44        3.14100  -0.00009   0.00000  -0.00160  -0.00167   3.13934
   D45       -3.11233  -0.00119   0.00000  -0.01714  -0.01713  -3.12946
   D46        0.07329  -0.00143   0.00000  -0.02015  -0.02010   0.05319
   D47        0.00734   0.00060   0.00000   0.00862   0.00858   0.01591
   D48       -3.09023   0.00036   0.00000   0.00561   0.00561  -3.08462
   D49        0.00454  -0.00091   0.00000  -0.01283  -0.01283  -0.00828
   D50       -3.13214  -0.00033   0.00000  -0.00485  -0.00470  -3.13684
   D51        3.13649  -0.00053   0.00000  -0.00735  -0.00739   3.12910
   D52       -0.00019   0.00005   0.00000   0.00063   0.00073   0.00055
   D53        0.00456   0.00063   0.00000   0.00897   0.00904   0.01360
[...]
   320    C   15  py     Ryd( 4p)     0.00027       1.48226
   321    C   15  py     Ryd( 5p)     0.00003       2.33055
   322    C   15  pz     Val( 2p)     0.57010      -0.01456
   323    C   15  pz     Ryd( 3p)     0.00087       0.65630
   324    C   15  pz     Ryd( 4p)     0.00032       1.45342
   325    C   15  pz     Ryd( 5p)     0.00005       2.28116
   326    C   15  dxy    Ryd( 3d)     0.00085       2.19936
   327    C   15  dxz    Ryd( 3d)     0.00070       2.02190
   328    C   15  dyz    Ryd( 3d)     0.00035       2.14717
   329    C   15  dx2y2  Ryd( 3d)     0.00073       2.12069
   330    C   15  dz2    Ryd( 3d)     0.00065       2.25395
 
   331    O   16  S      Cor( 1S)     0.99988     -18.85010
   332    O   16  S      Val( 2S)     0.80364      -0.77542
   333    O   16  S      Ryd( 3S)     0.00186       1.14833
   334    O   16  S      Ryd( 4S)     0.00007       2.05589
   335    O   16  S      Ryd( 5S)     0.00000      49.77256
   336    O   16  px     Val( 2p)     0.71296      -0.20468
   337    O   16  px     Ryd( 3p)     0.00143       0.95969
   338    O   16  px     Ryd( 4p)     0.00016       1.32090
   339    O   16  px     Ryd( 5p)     0.00001       5.31966
   340    O   16  py     Val( 2p)     0.90679      -0.22222
   341    O   16  py     Ryd( 3p)     0.00226       0.68848
   342    O   16  py     Ryd( 4p)     0.00017       1.18999
   343    O   16  py     Ryd( 5p)     0.00002       5.14521
   344    O   16  pz     Val( 2p)     0.86678      -0.22050
   345    O   16  pz     Ryd( 3p)     0.00184       0.82350
   346    O   16  pz     Ryd( 4p)     0.00025       1.20997
   347    O   16  pz     Ryd( 5p)     0.00001       5.18074
   348    O   16  dxy    Ryd( 3d)     0.00039       3.39296
   349    O   16  dxz    Ryd( 3d)     0.00040       3.44949
   350    O   16  dyz    Ryd( 3d)     0.00039       3.11013
   351    O   16  dx2y2  Ryd( 3d)     0.00024       3.29214
   352    O   16  dz2    Ryd( 3d)     0.00039       3.21121
 
   353    C   17  S      Cor( 1S)     0.99959     -10.00918
   354    C   17  S      Val( 2S)     0.53383      -0.17903
   355    C   17  S      Ryd( 4S)     0.00087       2.10525
   356    C   17  S      Ryd( 3S)     0.00080       1.32450
   357    C   17  S      Ryd( 5S)     0.00002      21.21568
   358    C   17  px     Val( 2p)     0.47746      -0.00575
   359    C   17  px     Ryd( 3p)     0.00107       0.98146
   360    C   17  px     Ryd( 4p)     0.00031       1.07877
   361    C   17  px     Ryd( 5p)     0.00004       2.45280
   362    C   17  py     Val( 2p)     0.58818      -0.01959
   363    C   17  py     Ryd( 3p)     0.00077       0.66732
   364    C   17  py     Ryd( 4p)     0.00031       1.11914
   365    C   17  py     Ryd( 5p)     0.00003       2.54889
   366    C   17  pz     Val( 2p)     0.49432      -0.00133
   367    C   17  pz     Ryd( 3p)     0.00122       0.63312
   368    C   17  pz     Ryd( 4p)     0.00042       1.15017
   369    C   17  pz     Ryd( 5p)     0.00008       2.46333
   370    C   17  dxy    Ryd( 3d)     0.00085       2.24076
   371    C   17  dxz    Ryd( 3d)     0.00077       2.21947
   372    C   17  dyz    Ryd( 3d)     0.00035       1.94074
   373    C   17  dx2y2  Ryd( 3d)     0.00050       2.02892
   374    C   17  dz2    Ryd( 3d)     0.00094       2.25457
 
   375    H   18  S      Val( 1S)     0.39646       0.11597
   376    H   18  S      Ryd( 2S)     0.00080       0.55525
   377    H   18  S      Ryd( 4S)     0.00027       1.63247
   378    H   18  S      Ryd( 3S)     0.00002       1.01086
   379    H   18  px     Ryd( 2p)     0.00008       2.09245
   380    H   18  py     Ryd( 2p)     0.00007       2.02644
   381    H   18  pz     Ryd( 2p)     0.00012       2.54616
 
   382    H   19  S      Val( 1S)     0.39142       0.12518
   383    H   19  S      Ryd( 2S)     0.00026       0.48292
   384    H   19  S      Ryd( 4S)     0.00039       1.70413
   385    H   19  S      Ryd( 3S)     0.00002       1.03048
   386    H   19  px     Ryd( 2p)     0.00005       1.92038
   387    H   19  py     Ryd( 2p)     0.00013       2.79159
   388    H   19  pz     Ryd( 2p)     0.00006       1.89622
 
   389    H   20  S      Val( 1S)     0.38462       0.13726
   390    H   20  S      Ryd( 2S)     0.00099       0.61858
   391    H   20  S      Ryd( 4S)     0.00024       1.99046
   392    H   20  S      Ryd( 3S)     0.00003       0.78601
   393    H   20  px     Ryd( 2p)     0.00013       2.74747
   394    H   20  py     Ryd( 2p)     0.00007       2.04337
   395    H   20  pz     Ryd( 2p)     0.00006       1.90447
 
   396    H   21  S      Val( 1S)     0.40529       0.11092
   397    H   21  S      Ryd( 2S)     0.00114       0.42847
   398    H   21  S      Ryd( 4S)     0.00040       1.99638
   399    H   21  S      Ryd( 3S)     0.00003       0.96582
   400    H   21  px     Ryd( 2p)     0.00010       2.24259
   401    H   21  py     Ryd( 2p)     0.00009       2.12861
   402    H   21  pz     Ryd( 2p)     0.00016       2.47939
 
   403    H   22  S      Val( 1S)     0.39106       0.11571
   404    H   22  S      Ryd( 2S)     0.00118       0.54155
   405    H   22  S      Ryd( 4S)     0.00026       1.55707
   406    H   22  S      Ryd( 3S)     0.00002       1.09701
   407    H   22  px     Ryd( 2p)     0.00012       2.59278
   408    H   22  py     Ryd( 2p)     0.00006       1.97004
   409    H   22  pz     Ryd( 2p)     0.00007       2.10088
 
   410    H   23  S      Val( 1S)     0.38940       0.12031
   411    H   23  S      Ryd( 2S)     0.00070       0.54965
   412    H   23  S      Ryd( 4S)     0.00039       1.64498
   413    H   23  S      Ryd( 3S)     0.00003       1.12967
   414    H   23  px     Ryd( 2p)     0.00005       1.95612
   415    H   23  py     Ryd( 2p)     0.00012       2.76468
   416    H   23  pz     Ryd( 2p)     0.00006       1.96793
 
   417    H   24  S      Val( 1S)     0.38546       0.12308
   418    H   24  S      Ryd( 2S)     0.00093       0.56670
   419    H   24  S      Ryd( 4S)     0.00030       1.65615
   420    H   24  S      Ryd( 3S)     0.00002       1.04413
   421    H   24  px     Ryd( 2p)     0.00010       2.40483
   422    H   24  py     Ryd( 2p)     0.00006       1.97079
   423    H   24  pz     Ryd( 2p)     0.00009       2.39184
 
   424    H   25  S      Val( 1S)     0.31692       0.15125
   425    H   25  S      Ryd( 2S)     0.00049       0.47277
   426    H   25  S      Ryd( 3S)     0.00079       0.78226
   427    H   25  S      Ryd( 4S)     0.00016       2.42368
   428    H   25  px     Ryd( 2p)     0.00013       2.06607
   429    H   25  py     Ryd( 2p)     0.00037       1.98115
   430    H   25  pz     Ryd( 2p)     0.00023       2.68092
 
   431    H   26  S      Val( 1S)     0.39422       0.12244
   432    H   26  S      Ryd( 3S)     0.00067       1.13165
   433    H   26  S      Ryd( 2S)     0.00045       0.70286
   434    H   26  S      Ryd( 4S)     0.00017       2.74298
   435    H   26  px     Ryd( 2p)     0.00007       2.14755
   436    H   26  py     Ryd( 2p)     0.00016       2.22962
   437    H   26  pz     Ryd( 2p)     0.00018       2.35913
 
   438    H   27  S      Val( 1S)     0.38679       0.13528
   439    H   27  S      Ryd( 2S)     0.00144       0.56566
   440    H   27  S      Ryd( 4S)     0.00029       1.51013
   441    H   27  S      Ryd( 3S)     0.00002       0.94919
   442    H   27  px     Ryd( 2p)     0.00019       2.68864
   443    H   27  py     Ryd( 2p)     0.00009       1.92879
   444    H   27  pz     Ryd( 2p)     0.00011       2.06005
 
   445    H   28  S      Val( 1S)     0.39434       0.13576
   446    H   28  S      Ryd( 2S)     0.00081       0.38698
   447    H   28  S      Ryd( 4S)     0.00027       1.47611
   448    H   28  S      Ryd( 3S)     0.00002       1.16066
   449    H   28  px     Ryd( 2p)     0.00006       2.10369
   450    H   28  py     Ryd( 2p)     0.00013       2.19530
   451    H   28  pz     Ryd( 2p)     0.00017       2.32290
 
   452    H   29  S      Val( 1S)     0.39242       0.13998
   453    H   29  S      Ryd( 2S)     0.00053       0.64429
   454    H   29  S      Ryd( 3S)     0.00049       1.55359
   455    H   29  S      Ryd( 4S)     0.00018       2.66336
   456    H   29  px     Ryd( 2p)     0.00013       2.34094
   457    H   29  py     Ryd( 2p)     0.00019       2.40578
   458    H   29  pz     Ryd( 2p)     0.00010       2.01188
 
   459    H   30  S      Val( 1S)     0.40973       0.09287
   460    H   30  S      Ryd( 2S)     0.00142       0.35089
   461    H   30  S      Ryd( 4S)     0.00040       1.30012
   462    H   30  S      Ryd( 3S)     0.00004       1.29660
   463    H   30  px     Ryd( 2p)     0.00005       1.79925
   464    H   30  py     Ryd( 2p)     0.00010       1.99202
   465    H   30  pz     Ryd( 2p)     0.00016       2.71962
 
   466    H   31  S      Val( 1S)     0.41155       0.09130
   467    H   31  S      Ryd( 2S)     0.00115       0.34989
   468    H   31  S      Ryd( 3S)     0.00043       1.26803
   469    H   31  S      Ryd( 4S)     0.00004       1.35039
   470    H   31  px     Ryd( 2p)     0.00007       2.14395
   471    H   31  py     Ryd( 2p)     0.00015       2.46211
   472    H   31  pz     Ryd( 2p)     0.00009       1.90425
 
   473    H   32  S      Val( 1S)     0.40409       0.10327
   474    H   32  S      Ryd( 2S)     0.00085       0.32521
   475    H   32  S      Ryd( 3S)     0.00020       1.20491
   476    H   32  S      Ryd( 4S)     0.00002       1.47121
   477    H   32  px     Ryd( 2p)     0.00004       1.99944
   478    H   32  py     Ryd( 2p)     0.00013       2.34417
   479    H   32  pz     Ryd( 2p)     0.00010       2.11028
 
   480    H   33  S      Val( 1S)     0.41781       0.09193
   481    H   33  S      Ryd( 2S)     0.00057       0.52550
   482    H   33  S      Ryd( 3S)     0.00046       1.26470
   483    H   33  S      Ryd( 4S)     0.00005       1.27687
   484    H   33  px     Ryd( 2p)     0.00007       2.05139
   485    H   33  py     Ryd( 2p)     0.00017       2.62973
   486    H   33  pz     Ryd( 2p)     0.00009       1.86291
 
   487    H   34  S      Val( 1S)     0.41516       0.08934
   488    H   34  S      Ryd( 2S)     0.00065       0.43583
   489    H   34  S      Ryd( 3S)     0.00041       1.19207
   490    H   34  S      Ryd( 4S)     0.00004       1.38390
   491    H   34  px     Ryd( 2p)     0.00008       1.92629
   492    H   34  py     Ryd( 2p)     0.00009       1.90834
   493    H   34  pz     Ryd( 2p)     0.00014       2.73230
 
   494    H   35  S      Val( 1S)     0.40757       0.10154
   495    H   35  S      Ryd( 2S)     0.00031       0.44336
   496    H   35  S      Ryd( 3S)     0.00026       1.19205
   497    H   35  S      Ryd( 4S)     0.00002       1.43161
   498    H   35  px     Ryd( 2p)     0.00008       2.32314
   499    H   35  py     Ryd( 2p)     0.00014       2.27891
   500    H   35  pz     Ryd( 2p)     0.00008       1.84204

 WARNING:  Population inversion found on atom  C    1
           Population inversion found on atom  C    2
           Population inversion found on atom  C    3
           Population inversion found on atom  C    4
           Population inversion found on atom  C    5
           Population inversion found on atom  N    6
           Population inversion found on atom  C    8
           Population inversion found on atom  C    9
           Population inversion found on atom  C   10
           Population inversion found on atom  C   11
           Population inversion found on atom  C   12
           Population inversion found on atom  C   13
           Population inversion found on atom  C   17
           Population inversion found on atom  H   18
           Population inversion found on atom  H   19
           Population inversion found on atom  H   20
           Population inversion found on atom  H   21
           Population inversion found on atom  H   22
           Population inversion found on atom  H   23
           Population inversion found on atom  H   24
           Population inversion found on atom  H   25
           Population inversion found on atom  H   26
           Population inversion found on atom  H   27
           Population inversion found on atom  H   28
           Population inversion found on atom  H   30


 Summary of Natural Population Analysis:                  
                                                          
                                       Natural Population 
                Natural  -----------------------------------------------
    Atom  No    Charge         Core      Valence    Rydberg      Total
 -----------------------------------------------------------------------
      C    1   -0.30770      0.99963     2.30182    0.00625     3.30770
      C    2    0.07292      0.99952     1.91168    0.01588     2.92708
      C    3    0.00942      0.99946     1.97850    0.01262     2.99058
      C    4   -0.28992      0.99963     2.28214    0.00816     3.28992
      C    5    0.16338      0.99961     1.81424    0.02277     2.83662
      N    6   -0.17395      0.99979     2.66332    0.01084     3.67395
      N    7   -0.32463      0.99969     2.81334    0.01160     3.82463
      C    8    0.08014      0.99947     1.90798    0.01241     2.91986
      C    9   -0.13939      0.99947     2.13038    0.00954     3.13939
      C   10    0.16815      0.99939     1.81862    0.01384     2.83185
      C   11   -0.14966      0.99951     2.14060    0.00954     3.14966
      C   12   -0.08094      0.99957     2.07080    0.01057     3.08094
      C   13   -0.12948      0.99950     2.11992    0.01007     3.12948
      O   14   -0.27203      0.99986     3.26240    0.00977     4.27203
      C   15   -0.10080      0.99960     2.09219    0.00900     3.10080
      O   16   -0.29995      0.99988     3.29017    0.00990     4.29995
      C   17   -0.10273      0.99959     2.09379    0.00934     3.10273
      H   18    0.10217      0.00000     0.39646    0.00137     0.39783
      H   19    0.10767      0.00000     0.39142    0.00091     0.39233
      H   20    0.11386      0.00000     0.38462    0.00152     0.38614
      H   21    0.09279      0.00000     0.40529    0.00192     0.40721
      H   22    0.10722      0.00000     0.39106    0.00171     0.39278
      H   23    0.10925      0.00000     0.38940    0.00134     0.39075
      H   24    0.11305      0.00000     0.38546    0.00150     0.38695
      H   25    0.18091      0.00000     0.31692    0.00217     0.31909
      H   26    0.10408      0.00000     0.39422    0.00170     0.39592
      H   27    0.11106      0.00000     0.38679    0.00214     0.38894
      H   28    0.10421      0.00000     0.39434    0.00146     0.39579
      H   29    0.10597      0.00000     0.39242    0.00161     0.39403
      H   30    0.08810      0.00000     0.40973    0.00216     0.41190
      H   31    0.08653      0.00000     0.41155    0.00192     0.41347
      H   32    0.09456      0.00000     0.40409    0.00135     0.40544
      H   33    0.08078      0.00000     0.41781    0.00141     0.41922
      H   34    0.08342      0.00000     0.41516    0.00142     0.41658
      H   35    0.09154      0.00000     0.40757    0.00089     0.40846
 =======================================================================
   * Total *    0.00000     16.99317    45.78623    0.22060    63.00000

                                 Natural Population      
 --------------------------------------------------------
   Core                      16.99317 ( 99.9598% of  17)
   Valence                   45.78623 ( 99.5353% of  46)
   Natural Minimal Basis     62.77940 ( 99.6498% of  63)
   Natural Rydberg Basis      0.22060 (  0.3502% of  63)
 --------------------------------------------------------

    Atom  No          Natural Electron Configuration
 ----------------------------------------------------------------------------
      C    1      [core]2S( 0.54)2p( 1.76)
      C    2      [core]2S( 0.47)2p( 1.44)3p( 0.01)
      C    3      [core]2S( 0.46)2p( 1.52)
      C    4      [core]2S( 0.54)2p( 1.74)
      C    5      [core]2S( 0.42)2p( 1.39)3S( 0.01)4p( 0.01)
      N    6      [core]2S( 0.79)2p( 1.87)3d( 0.01)
      N    7      [core]2S( 0.65)2p( 2.16)3p( 0.01)
      C    8      [core]2S( 0.42)2p( 1.49)3p( 0.01)
      C    9      [core]2S( 0.47)2p( 1.66)3p( 0.01)
      C   10      [core]2S( 0.41)2p( 1.41)3p( 0.01)
      C   11      [core]2S( 0.47)2p( 1.67)
      C   12      [core]2S( 0.47)2p( 1.60)
      C   13      [core]2S( 0.47)2p( 1.65)3p( 0.01)
      O   14      [core]2S( 0.80)2p( 2.47)
      C   15      [core]2S( 0.54)2p( 1.55)
      O   16      [core]2S( 0.80)2p( 2.49)3p( 0.01)
      C   17      [core]2S( 0.53)2p( 1.56)
      H   18            1S( 0.40)
      H   19            1S( 0.39)
      H   20            1S( 0.38)
      H   21            1S( 0.41)
      H   22            1S( 0.39)
      H   23            1S( 0.39)
      H   24            1S( 0.39)
      H   25            1S( 0.32)
      H   26            1S( 0.39)
      H   27            1S( 0.39)
      H   28            1S( 0.39)
      H   29            1S( 0.39)
      H   30            1S( 0.41)
      H   31            1S( 0.41)
      H   32            1S( 0.40)
      H   33            1S( 0.42)
      H   34            1S( 0.42)
      H   35            1S( 0.41)


 NBO analysis skipped by request.
 1\1\GINC-NODE307\SP\UB3LYP\6-311++G(d,p)\C13H18N2O2(1-,2)\VSC10255\11-
 Dec-2020\0\\# B3LYP/6-311++G(d,p) empiricaldispersion=gd3bj scf=xqc po
 p=npa geom=check\\CID_113481757_JID_7095_Energie_anion\\-1,2\C,0,0.997
 3942476,0.0604937341,0.1037322049\C,0,0.910577485,1.1209854346,-0.9939
 461159\C,0,1.0503545529,0.5419919319,-2.4613841298\C,0,0.3277164317,-0
 .8003418408,-2.6712267188\C,0,0.4597358965,1.5233369588,-3.3979898904\
 N,0,0.0012096347,2.2739144318,-4.153960215\N,0,2.4769564863,0.44034044
 51,-2.8785628432\C,0,3.3743851484,-0.3849620251,-2.1464937712\C,0,4.35
 00332458,0.1966057823,-1.3339035429\C,0,5.2770476654,-0.5958446347,-0.
 6450564214\C,0,5.2179517486,-1.9896266234,-0.7456806038\C,0,4.24414151
 93,-2.5629391298,-1.5683882007\C,0,3.3392539699,-1.7841342207,-2.27986
 44517\O,0,6.1825114064,0.0889529957,0.1096463751\C,0,7.1347714347,-0.6
 60927538,0.8466626117\O,0,-0.1992017428,1.9925166202,-0.8261132068\C,0
 ,-1.5055988771,1.4450399716,-0.8846606799\H,0,0.1757100651,-0.65934838
 04,0.0602741123\H,0,0.9602094705,0.5625209796,1.0753326188\H,0,1.93587
 94916,-0.4939682544,0.0350027874\H,0,1.7625367086,1.7993359628,-0.8772
 032845\H,0,-0.7405072117,-0.6983709804,-2.4709237557\H,0,0.4627310589,
 -1.1291378014,-3.7043995501\H,0,0.7315998179,-1.560312869,-2.002095028
 4\H,0,2.8535920568,1.3832780785,-2.931127426\H,0,4.4040152594,1.274403
 1054,-1.2113911667\H,0,5.9175900314,-2.6230185995,-0.2147813397\H,0,4.
 2127649096,-3.6439756958,-1.6717400983\H,0,2.6357839395,-2.2428396884,
 -2.9629030957\H,0,6.6484823101,-1.3205031998,1.577191998\H,0,7.7709230
 609,-1.2630975469,0.1851835812\H,0,7.7497201058,0.0708994665,1.3727008
 815\H,0,-1.7928185793,1.1708483122,-1.9078683144\H,0,-1.6296711327,0.5
 745861505,-0.227332344\H,0,-2.1768016156,2.2367186669,-0.5436409756\\V
 ersion=ES64L-G16RevA.03\State=2-A\HF=-766.3859052\S2=0.750031\S2-1=0.\
 S2A=0.75\RMSD=2.277e-11\Dipole=-1.1871309,1.4895246,-0.9405303\Quadrup
 ole=-19.1207911,8.6533213,10.4674699,17.5044196,-18.6961273,9.4840357\
 PG=C01 [X(C13H18N2O2)]\\@


 The earth never tires,
 The earth is rude, silent, incomprehensible at first,
 Nature is rude and incomprehensible at first,
 Be not discouraged, keep on,
 There are divine things well envelop'd,
 I swear to you there are divine things more beautiful than words can tell.
                                 -- Walt Whitman
 Job cpu time:       0 days  1 hours  2 minutes 53.5 seconds.
 Elapsed time:       0 days  0 hours 17 minutes 12.6 seconds.
 File lengths (MBytes):  RWF=    292 Int=      0 D2E=      0 Chk=     28 Scr=      8
 Normal termination of Gaussian 16 at Fri Dec 11 12:37:38 2020.
