 Entering Gaussian System, Link 0=g16
 Initial command:
 /apps/brussel/CO7/ivybridge-ib/software/Gaussian/G16.A.03-intel-2017b/g16/l1.exe "/scratch/brussel/102/vsc10255/3549904[6226].master01.hydra.brussel.vsc/Gau-59967.inp" -scrdir="/scratch/brussel/102/vsc10255/3549904[6226].master01.hydra.brussel.vsc/"
 Entering Link 1 = /apps/brussel/CO7/ivybridge-ib/software/Gaussian/G16.A.03-intel-2017b/g16/l1.exe.bin PID=     59968.
  
 Copyright (c) 1988,1990,1992,1993,1995,1998,2003,2009,2016,
            Gaussian, Inc.  All Rights Reserved.
  
 This is part of the Gaussian(R) 16 program.  It is based on
 the Gaussian(R) 09 system (copyright 2009, Gaussian, Inc.),
 the Gaussian(R) 03 system (copyright 2003, Gaussian, Inc.),
 the Gaussian(R) 98 system (copyright 1998, Gaussian, Inc.),
 the Gaussian(R) 94 system (copyright 1995, Gaussian, Inc.),
 the Gaussian 92(TM) system (copyright 1992, Gaussian, Inc.),
 the Gaussian 90(TM) system (copyright 1990, Gaussian, Inc.),
 the Gaussian 88(TM) system (copyright 1988, Gaussian, Inc.),
 the Gaussian 86(TM) system (copyright 1986, Carnegie Mellon
 University), and the Gaussian 82(TM) system (copyright 1983,
 Carnegie Mellon University). Gaussian is a federally registered
 trademark of Gaussian, Inc.
  
 This software contains proprietary and confidential information,
 including trade secrets, belonging to Gaussian, Inc.
  
 This software is provided under written license and may be
 used, copied, transmitted, or stored only in accord with that
 written license.
  
 The following legend is applicable only to US Government
 contracts under FAR:
  
                    RESTRICTED RIGHTS LEGEND
  
 Use, reproduction and disclosure by the US Government is
 subject to restrictions as set forth in subparagraphs (a)
 and (c) of the Commercial Computer Software - Restricted
 Rights clause in FAR 52.227-19.
  
 Gaussian, Inc.
 340 Quinnipiac St., Bldg. 40, Wallingford CT 06492
  
  
 ---------------------------------------------------------------
 Warning -- This program may not be used in any manner that
 competes with the business of Gaussian, Inc. or will provide
 assistance to any competitor of Gaussian, Inc.  The licensee
 of this program is prohibited from giving any competitor of
 Gaussian, Inc. access to this program.  By using this program,
 the user acknowledges that Gaussian, Inc. is engaged in the
 business of creating and licensing software in the field of
 computational chemistry and represents and warrants to the
 licensee that it is not a competitor of Gaussian, Inc. and that
 it will not use this program in any manner prohibited above.
 ---------------------------------------------------------------
  

 Cite this work as:
 Gaussian 16, Revision A.03,
 M. J. Frisch, G. W. Trucks, H. B. Schlegel, G. E. Scuseria, 
 M. A. Robb, J. R. Cheeseman, G. Scalmani, V. Barone, 
 G. A. Petersson, H. Nakatsuji, X. Li, M. Caricato, A. V. Marenich, 
 J. Bloino, B. G. Janesko, R. Gomperts, B. Mennucci, H. P. Hratchian, 
 J. V. Ortiz, A. F. Izmaylov, J. L. Sonnenberg, D. Williams-Young, 
 F. Ding, F. Lipparini, F. Egidi, J. Goings, B. Peng, A. Petrone, 
 T. Henderson, D. Ranasinghe, V. G. Zakrzewski, J. Gao, N. Rega, 
 G. Zheng, W. Liang, M. Hada, M. Ehara, K. Toyota, R. Fukuda, 
 J. Hasegawa, M. Ishida, T. Nakajima, Y. Honda, O. Kitao, H. Nakai, 
 T. Vreven, K. Throssell, J. A. Montgomery, Jr., J. E. Peralta, 
 F. Ogliaro, M. J. Bearpark, J. J. Heyd, E. N. Brothers, K. N. Kudin, 
 V. N. Staroverov, T. A. Keith, R. Kobayashi, J. Normand, 
 K. Raghavachari, A. P. Rendell, J. C. Burant, S. S. Iyengar, 
 J. Tomasi, M. Cossi, J. M. Millam, M. Klene, C. Adamo, R. Cammi, 
 J. W. Ochterski, R. L. Martin, K. Morokuma, O. Farkas, 
 J. B. Foresman, and D. J. Fox, Gaussian, Inc., Wallingford CT, 2016.
 
 ******************************************
 Gaussian 16:  ES64L-G16RevA.03 25-Dec-2016
                10-Dec-2020 
 ******************************************
 %chk=JID_6226.chk
 %mem=8GB
 %nprocshared=4
 Will use up to    4 processors via shared memory.
 -----------------------------------------------------------
 # opt freq B3LYP/6-31G(d) empiricaldispersion=gd3bj scf=xqc
 -----------------------------------------------------------
 1/18=20,19=15,26=3,38=1/1,3;
 2/9=110,12=2,17=6,18=5,40=1/2;
 3/5=1,6=6,7=1,11=2,25=1,30=1,71=1,74=-5,124=41/1,2,3;
 4//1;
 5/5=2,8=3,13=1,38=5/2,8;
 6/7=2,8=2,9=2,10=2,28=1/1;
 7//1,2,3,16;
 1/18=20,19=15,26=3/3(2);
 2/9=110/2;
 99//99;
 2/9=110/2;
 3/5=1,6=6,7=1,11=2,25=1,30=1,71=1,74=-5,124=41/1,2,3;
 4/5=5,16=3,69=1/1;
 5/5=2,8=3,13=1,38=5/2,8;
 7//1,2,3,16;
 1/18=20,19=15,26=3/3(-5);
 2/9=110/2;
 6/7=2,8=2,9=2,10=2,19=2,28=1/1;
 99/9=1/99;
 -------------------------------
 CID_124096075_JID_6226_neutraal
 -------------------------------
 Symbolic Z-matrix:
 Charge =  0 Multiplicity = 1
 C                     0.94387  -0.08075  -0.01812 
 C                     0.12478  -1.31445   0.3371 
 C                     0.7406   -2.14631   1.4693 
 C                     0.65115  -1.5214    2.8676 
 C                    -0.73775  -1.34504   3.52778 
 C                    -1.90736  -2.18016   2.99352 
 C                    -3.07671  -2.27759   3.98394 
 C                    -3.68963  -0.91944   4.34159 
 C                    -4.98202  -1.02205   5.15378 
 S                    -4.72784  -1.67781   6.82956 
 O                     1.60263  -2.01825   3.8172 
 C                     1.82124  -3.39337   4.14201 
 C                     0.54752  -4.22394   4.32594 
 C                     2.73142  -4.0646    3.10337 
 C                     2.54724  -3.36292   5.51818 
 C                     3.85944  -2.58379   5.53617 
 H                     0.95745   0.64274   0.80185 
 H                     0.51137   0.41708  -0.89205 
 H                     1.97683  -0.3499   -0.26018 
 H                    -0.89621  -1.008     0.57592 
 H                     0.06188  -1.9477   -0.5563 
 H                     0.27171  -3.13506   1.46991 
 H                     1.79469  -2.31773   1.22111 
 H                     1.01001  -0.492     2.74399 
 H                    -0.63968  -1.49375   4.61025 
 H                    -1.02376  -0.29095   3.40568 
 H                    -2.27931  -1.74741   2.05937 
 H                    -1.59185  -3.19851   2.75998 
 H                    -3.84943  -2.91621   3.53831 
 H                    -2.72756  -2.78797   4.88854 
 H                    -2.96224  -0.30299   4.88327 
 H                    -3.91987  -0.38424   3.4117 
 H                    -5.42104  -0.02432   5.25629 
 H                    -5.71298  -1.65256   4.63741 
 H                    -4.41749  -2.93066   6.46645 
 H                     0.04041  -4.39346   3.3746 
 H                     0.7762   -5.21383   4.73758 
 H                    -0.15867  -3.7346    5.00304 
 H                     3.54186  -3.39776   2.79061 
 H                     3.16819  -4.99034   3.49414 
 H                     2.18033  -4.33679   2.19842 
 H                     1.88267  -2.89551   6.25727 
 H                     2.74278  -4.38476   5.86687 
 H                     3.71692  -1.54683   5.2177 
 H                     4.26675  -2.56676   6.55252 
 H                     4.60972  -3.04682   4.88888 
 

 GradGradGradGradGradGradGradGradGradGradGradGradGradGradGradGradGradGrad
 Berny optimization.
 Initialization pass.
                           ----------------------------
                           !    Initial Parameters    !
                           ! (Angstroms and Degrees)  !
 --------------------------                            --------------------------
 ! Name  Definition              Value          Derivative Info.                !
 --------------------------------------------------------------------------------
 ! R1    R(1,2)                  1.5229         estimate D2E/DX2                !
 ! R2    R(1,17)                 1.0936         estimate D2E/DX2                !
 ! R3    R(1,18)                 1.0948         estimate D2E/DX2                !
 ! R4    R(1,19)                 1.0946         estimate D2E/DX2                !
 ! R5    R(2,3)                  1.534          estimate D2E/DX2                !
 ! R6    R(2,20)                 1.0924         estimate D2E/DX2                !
 ! R7    R(2,21)                 1.0969         estimate D2E/DX2                !
 ! R8    R(3,4)                  1.5342         estimate D2E/DX2                !
 ! R9    R(3,22)                 1.0943         estimate D2E/DX2                !
 ! R10   R(3,23)                 1.0964         estimate D2E/DX2                !
 ! R11   R(4,5)                  1.5479         estimate D2E/DX2                !
 ! R12   R(4,11)                 1.4331         estimate D2E/DX2                !
 ! R13   R(4,24)                 1.0971         estimate D2E/DX2                !
 ! R14   R(5,6)                  1.5332         estimate D2E/DX2                !
 ! R15   R(5,25)                 1.097          estimate D2E/DX2                !
 ! R16   R(5,26)                 1.099          estimate D2E/DX2                !
 ! R17   R(6,7)                  1.5355         estimate D2E/DX2                !
 ! R18   R(6,27)                 1.0946         estimate D2E/DX2                !
 ! R19   R(6,28)                 1.0914         estimate D2E/DX2                !
 ! R20   R(7,8)                  1.5324         estimate D2E/DX2                !
 ! R21   R(7,29)                 1.097          estimate D2E/DX2                !
 ! R22   R(7,30)                 1.0958         estimate D2E/DX2                !
 ! R23   R(8,9)                  1.5299         estimate D2E/DX2                !
 ! R24   R(8,31)                 1.0966         estimate D2E/DX2                !
 ! R25   R(8,32)                 1.0973         estimate D2E/DX2                !
 ! R26   R(9,10)                 1.8174         estimate D2E/DX2                !
 ! R27   R(9,33)                 1.0949         estimate D2E/DX2                !
 ! R28   R(9,34)                 1.0948         estimate D2E/DX2                !
 ! R29   R(10,35)                1.3408         estimate D2E/DX2                !
 ! R30   R(11,12)                1.4298         estimate D2E/DX2                !
 ! R31   R(12,13)                1.5317         estimate D2E/DX2                !
 ! R32   R(12,14)                1.5355         estimate D2E/DX2                !
 ! R33   R(12,15)                1.5562         estimate D2E/DX2                !
 ! R34   R(13,36)                1.0913         estimate D2E/DX2                !
 ! R35   R(13,37)                1.0962         estimate D2E/DX2                !
 ! R36   R(13,38)                1.0939         estimate D2E/DX2                !
 ! R37   R(14,39)                1.0951         estimate D2E/DX2                !
 ! R38   R(14,40)                1.0957         estimate D2E/DX2                !
 ! R39   R(14,41)                1.0939         estimate D2E/DX2                !
 ! R40   R(15,16)                1.5262         estimate D2E/DX2                !
 ! R41   R(15,42)                1.0984         estimate D2E/DX2                !
 ! R42   R(15,43)                1.0973         estimate D2E/DX2                !
 ! R43   R(16,44)                1.0941         estimate D2E/DX2                !
 ! R44   R(16,45)                1.0951         estimate D2E/DX2                !
 ! R45   R(16,46)                1.0938         estimate D2E/DX2                !
 ! A1    A(2,1,17)             111.5758         estimate D2E/DX2                !
 ! A2    A(2,1,18)             110.0042         estimate D2E/DX2                !
 ! A3    A(2,1,19)             111.0986         estimate D2E/DX2                !
 ! A4    A(17,1,18)            107.6133         estimate D2E/DX2                !
 ! A5    A(17,1,19)            108.468          estimate D2E/DX2                !
 ! A6    A(18,1,19)            107.9444         estimate D2E/DX2                !
 ! A7    A(1,2,3)              113.3006         estimate D2E/DX2                !
 ! A8    A(1,2,20)             109.0523         estimate D2E/DX2                !
 ! A9    A(1,2,21)             107.9723         estimate D2E/DX2                !
 ! A10   A(3,2,20)             111.4675         estimate D2E/DX2                !
 ! A11   A(3,2,21)             108.1261         estimate D2E/DX2                !
 ! A12   A(20,2,21)            106.6439         estimate D2E/DX2                !
 ! A13   A(2,3,4)              115.3667         estimate D2E/DX2                !
 ! A14   A(2,3,22)             108.5649         estimate D2E/DX2                !
 ! A15   A(2,3,23)             107.6781         estimate D2E/DX2                !
 ! A16   A(4,3,22)             110.0319         estimate D2E/DX2                !
 ! A17   A(4,3,23)             109.0295         estimate D2E/DX2                !
 ! A18   A(22,3,23)            105.7124         estimate D2E/DX2                !
 ! A19   A(3,4,5)              119.1729         estimate D2E/DX2                !
 ! A20   A(3,4,11)             115.0865         estimate D2E/DX2                !
 ! A21   A(3,4,24)             105.0947         estimate D2E/DX2                !
 ! A22   A(5,4,11)             110.6473         estimate D2E/DX2                !
 ! A23   A(5,4,24)             103.5704         estimate D2E/DX2                !
 ! A24   A(11,4,24)            100.5314         estimate D2E/DX2                !
 ! A25   A(4,5,6)              118.2815         estimate D2E/DX2                !
 ! A26   A(4,5,25)             108.9767         estimate D2E/DX2                !
 ! A27   A(4,5,26)             107.1819         estimate D2E/DX2                !
 ! A28   A(6,5,25)             109.7663         estimate D2E/DX2                !
 ! A29   A(6,5,26)             106.5695         estimate D2E/DX2                !
 ! A30   A(25,5,26)            105.2426         estimate D2E/DX2                !
 ! A31   A(5,6,7)              113.0            estimate D2E/DX2                !
 ! A32   A(5,6,27)             109.9521         estimate D2E/DX2                !
 ! A33   A(5,6,28)             111.239          estimate D2E/DX2                !
 ! A34   A(7,6,27)             108.467          estimate D2E/DX2                !
 ! A35   A(7,6,28)             107.3958         estimate D2E/DX2                !
 ! A36   A(27,6,28)            106.5288         estimate D2E/DX2                !
 ! A37   A(6,7,8)              113.5098         estimate D2E/DX2                !
 ! A38   A(6,7,29)             108.1392         estimate D2E/DX2                !
 ! A39   A(6,7,30)             108.6257         estimate D2E/DX2                !
 ! A40   A(8,7,29)             109.2091         estimate D2E/DX2                !
 ! A41   A(8,7,30)             110.34           estimate D2E/DX2                !
 ! A42   A(29,7,30)            106.7764         estimate D2E/DX2                !
 ! A43   A(7,8,9)              113.7258         estimate D2E/DX2                !
 ! A44   A(7,8,31)             110.378          estimate D2E/DX2                !
 ! A45   A(7,8,32)             108.5672         estimate D2E/DX2                !
 ! A46   A(9,8,31)             109.6223         estimate D2E/DX2                !
 ! A47   A(9,8,32)             107.779          estimate D2E/DX2                !
 ! A48   A(31,8,32)            106.4746         estimate D2E/DX2                !
 ! A49   A(8,9,10)             113.3021         estimate D2E/DX2                !
 ! A50   A(8,9,33)             109.1067         estimate D2E/DX2                !
 ! A51   A(8,9,34)             110.6264         estimate D2E/DX2                !
 ! A52   A(10,9,33)            107.3715         estimate D2E/DX2                !
 ! A53   A(10,9,34)            108.693          estimate D2E/DX2                !
 ! A54   A(33,9,34)            107.5341         estimate D2E/DX2                !
 ! A55   A(9,10,35)             96.8814         estimate D2E/DX2                !
 ! A56   A(4,11,12)            125.8362         estimate D2E/DX2                !
 ! A57   A(11,12,13)           114.9398         estimate D2E/DX2                !
 ! A58   A(11,12,14)           110.9405         estimate D2E/DX2                !
 ! A59   A(11,12,15)           104.6789         estimate D2E/DX2                !
 ! A60   A(13,12,14)           109.701          estimate D2E/DX2                !
 ! A61   A(13,12,15)           106.9996         estimate D2E/DX2                !
 ! A62   A(14,12,15)           109.2797         estimate D2E/DX2                !
 ! A63   A(12,13,36)           111.4675         estimate D2E/DX2                !
 ! A64   A(12,13,37)           111.1796         estimate D2E/DX2                !
 ! A65   A(12,13,38)           111.6295         estimate D2E/DX2                !
 ! A66   A(36,13,37)           106.5005         estimate D2E/DX2                !
 ! A67   A(36,13,38)           108.0046         estimate D2E/DX2                !
 ! A68   A(37,13,38)           107.83           estimate D2E/DX2                !
 ! A69   A(12,14,39)           111.4484         estimate D2E/DX2                !
 ! A70   A(12,14,40)           111.3705         estimate D2E/DX2                !
 ! A71   A(12,14,41)           111.698          estimate D2E/DX2                !
 ! A72   A(39,14,40)           108.7435         estimate D2E/DX2                !
 ! A73   A(39,14,41)           106.7419         estimate D2E/DX2                !
 ! A74   A(40,14,41)           106.5963         estimate D2E/DX2                !
 ! A75   A(12,15,16)           114.9303         estimate D2E/DX2                !
 ! A76   A(12,15,42)           108.73           estimate D2E/DX2                !
 ! A77   A(12,15,43)           110.2385         estimate D2E/DX2                !
 ! A78   A(16,15,42)           107.1602         estimate D2E/DX2                !
 ! A79   A(16,15,43)           108.5693         estimate D2E/DX2                !
 ! A80   A(42,15,43)           106.8755         estimate D2E/DX2                !
 ! A81   A(15,16,44)           111.6184         estimate D2E/DX2                !
 ! A82   A(15,16,45)           109.7965         estimate D2E/DX2                !
 ! A83   A(15,16,46)           111.5119         estimate D2E/DX2                !
 ! A84   A(44,16,45)           107.6904         estimate D2E/DX2                !
 ! A85   A(44,16,46)           108.5619         estimate D2E/DX2                !
 ! A86   A(45,16,46)           107.4999         estimate D2E/DX2                !
 ! D1    D(17,1,2,3)           -66.169          estimate D2E/DX2                !
 ! D2    D(17,1,2,20)           58.6022         estimate D2E/DX2                !
 ! D3    D(17,1,2,21)          174.1072         estimate D2E/DX2                !
 ! D4    D(18,1,2,3)           174.4744         estimate D2E/DX2                !
 ! D5    D(18,1,2,20)          -60.7544         estimate D2E/DX2                !
 ! D6    D(18,1,2,21)           54.7507         estimate D2E/DX2                !
 ! D7    D(19,1,2,3)            55.0088         estimate D2E/DX2                !
 ! D8    D(19,1,2,20)          179.78           estimate D2E/DX2                !
 ! D9    D(19,1,2,21)          -64.715          estimate D2E/DX2                !
 ! D10   D(1,2,3,4)             72.0703         estimate D2E/DX2                !
 ! D11   D(1,2,3,22)          -163.9334         estimate D2E/DX2                !
 ! D12   D(1,2,3,23)           -49.9246         estimate D2E/DX2                !
 ! D13   D(20,2,3,4)           -51.3847         estimate D2E/DX2                !
 ! D14   D(20,2,3,22)           72.6117         estimate D2E/DX2                !
 ! D15   D(20,2,3,23)         -173.3796         estimate D2E/DX2                !
 ! D16   D(21,2,3,4)          -168.2939         estimate D2E/DX2                !
 ! D17   D(21,2,3,22)          -44.2976         estimate D2E/DX2                !
 ! D18   D(21,2,3,23)           69.7112         estimate D2E/DX2                !
 ! D19   D(2,3,4,5)             66.3862         estimate D2E/DX2                !
 ! D20   D(2,3,4,11)          -158.6022         estimate D2E/DX2                !
 ! D21   D(2,3,4,24)           -49.0119         estimate D2E/DX2                !
 ! D22   D(22,3,4,5)           -56.8372         estimate D2E/DX2                !
 ! D23   D(22,3,4,11)           78.1744         estimate D2E/DX2                !
 ! D24   D(22,3,4,24)         -172.2353         estimate D2E/DX2                !
 ! D25   D(23,3,4,5)          -172.3469         estimate D2E/DX2                !
 ! D26   D(23,3,4,11)          -37.3353         estimate D2E/DX2                !
 ! D27   D(23,3,4,24)           72.2551         estimate D2E/DX2                !
 ! D28   D(3,4,5,6)             19.2532         estimate D2E/DX2                !
 ! D29   D(3,4,5,25)           145.489          estimate D2E/DX2                !
 ! D30   D(3,4,5,26)          -101.0996         estimate D2E/DX2                !
 ! D31   D(11,4,5,6)          -117.5722         estimate D2E/DX2                !
 ! D32   D(11,4,5,25)            8.6635         estimate D2E/DX2                !
 ! D33   D(11,4,5,26)          122.075          estimate D2E/DX2                !
 ! D34   D(24,4,5,6)           135.4569         estimate D2E/DX2                !
 ! D35   D(24,4,5,25)          -98.3073         estimate D2E/DX2                !
 ! D36   D(24,4,5,26)           15.1041         estimate D2E/DX2                !
 ! D37   D(3,4,11,12)          -53.0021         estimate D2E/DX2                !
 ! D38   D(5,4,11,12)           85.7241         estimate D2E/DX2                !
 ! D39   D(24,4,11,12)        -165.3046         estimate D2E/DX2                !
 ! D40   D(4,5,6,7)            160.9113         estimate D2E/DX2                !
 ! D41   D(4,5,6,27)           -77.7442         estimate D2E/DX2                !
 ! D42   D(4,5,6,28)            40.0185         estimate D2E/DX2                !
 ! D43   D(25,5,6,7)            35.057          estimate D2E/DX2                !
 ! D44   D(25,5,6,27)          156.4015         estimate D2E/DX2                !
 ! D45   D(25,5,6,28)          -85.8358         estimate D2E/DX2                !
 ! D46   D(26,5,6,7)           -78.4207         estimate D2E/DX2                !
 ! D47   D(26,5,6,27)           42.9238         estimate D2E/DX2                !
 ! D48   D(26,5,6,28)          160.6865         estimate D2E/DX2                !
 ! D49   D(5,6,7,8)             60.5647         estimate D2E/DX2                !
 ! D50   D(5,6,7,29)          -178.0977         estimate D2E/DX2                !
 ! D51   D(5,6,7,30)           -62.5708         estimate D2E/DX2                !
 ! D52   D(27,6,7,8)           -61.6156         estimate D2E/DX2                !
 ! D53   D(27,6,7,29)           59.722          estimate D2E/DX2                !
 ! D54   D(27,6,7,30)          175.2489         estimate D2E/DX2                !
 ! D55   D(28,6,7,8)          -176.3836         estimate D2E/DX2                !
 ! D56   D(28,6,7,29)          -55.0461         estimate D2E/DX2                !
 ! D57   D(28,6,7,30)           60.4808         estimate D2E/DX2                !
 ! D58   D(6,7,8,9)            171.1585         estimate D2E/DX2                !
 ! D59   D(6,7,8,31)           -65.1605         estimate D2E/DX2                !
 ! D60   D(6,7,8,32)            51.1929         estimate D2E/DX2                !
 ! D61   D(29,7,8,9)            50.422          estimate D2E/DX2                !
 ! D62   D(29,7,8,31)          174.103          estimate D2E/DX2                !
 ! D63   D(29,7,8,32)          -69.5436         estimate D2E/DX2                !
 ! D64   D(30,7,8,9)           -66.6521         estimate D2E/DX2                !
 ! D65   D(30,7,8,31)           57.0289         estimate D2E/DX2                !
 ! D66   D(30,7,8,32)          173.3823         estimate D2E/DX2                !
 ! D67   D(7,8,9,10)            67.6522         estimate D2E/DX2                !
 ! D68   D(7,8,9,33)          -172.7942         estimate D2E/DX2                !
 ! D69   D(7,8,9,34)           -54.6906         estimate D2E/DX2                !
 ! D70   D(31,8,9,10)          -56.4384         estimate D2E/DX2                !
 ! D71   D(31,8,9,33)           63.1153         estimate D2E/DX2                !
 ! D72   D(31,8,9,34)         -178.7812         estimate D2E/DX2                !
 ! D73   D(32,8,9,10)         -171.9375         estimate D2E/DX2                !
 ! D74   D(32,8,9,33)          -52.3838         estimate D2E/DX2                !
 ! D75   D(32,8,9,34)           65.7198         estimate D2E/DX2                !
 ! D76   D(8,9,10,35)          -69.1838         estimate D2E/DX2                !
 ! D77   D(33,9,10,35)         170.2739         estimate D2E/DX2                !
 ! D78   D(34,9,10,35)          54.2277         estimate D2E/DX2                !
 ! D79   D(4,11,12,13)         -43.7049         estimate D2E/DX2                !
 ! D80   D(4,11,12,14)          81.4665         estimate D2E/DX2                !
 ! D81   D(4,11,12,15)        -160.7779         estimate D2E/DX2                !
 ! D82   D(11,12,13,36)         71.0518         estimate D2E/DX2                !
 ! D83   D(11,12,13,37)       -170.2839         estimate D2E/DX2                !
 ! D84   D(11,12,13,38)        -49.8273         estimate D2E/DX2                !
 ! D85   D(14,12,13,36)        -54.7634         estimate D2E/DX2                !
 ! D86   D(14,12,13,37)         63.9009         estimate D2E/DX2                !
 ! D87   D(14,12,13,38)       -175.6424         estimate D2E/DX2                !
 ! D88   D(15,12,13,36)       -173.2011         estimate D2E/DX2                !
 ! D89   D(15,12,13,37)        -54.5368         estimate D2E/DX2                !
 ! D90   D(15,12,13,38)         65.9198         estimate D2E/DX2                !
 ! D91   D(11,12,14,39)         39.7786         estimate D2E/DX2                !
 ! D92   D(11,12,14,40)        161.4107         estimate D2E/DX2                !
 ! D93   D(11,12,14,41)        -79.5239         estimate D2E/DX2                !
 ! D94   D(13,12,14,39)        167.8455         estimate D2E/DX2                !
 ! D95   D(13,12,14,40)        -70.5224         estimate D2E/DX2                !
 ! D96   D(13,12,14,41)         48.543          estimate D2E/DX2                !
 ! D97   D(15,12,14,39)        -75.1381         estimate D2E/DX2                !
 ! D98   D(15,12,14,40)         46.494          estimate D2E/DX2                !
 ! D99   D(15,12,14,41)        165.5593         estimate D2E/DX2                !
 ! D100  D(11,12,15,16)        -58.0915         estimate D2E/DX2                !
 ! D101  D(11,12,15,42)         61.9855         estimate D2E/DX2                !
 ! D102  D(11,12,15,43)        178.8387         estimate D2E/DX2                !
 ! D103  D(13,12,15,16)        179.504          estimate D2E/DX2                !
 ! D104  D(13,12,15,42)        -60.419          estimate D2E/DX2                !
 ! D105  D(13,12,15,43)         56.4342         estimate D2E/DX2                !
 ! D106  D(14,12,15,16)         60.7925         estimate D2E/DX2                !
 ! D107  D(14,12,15,42)       -179.1305         estimate D2E/DX2                !
 ! D108  D(14,12,15,43)        -62.2773         estimate D2E/DX2                !
 ! D109  D(12,15,16,44)         57.3416         estimate D2E/DX2                !
 ! D110  D(12,15,16,45)        176.6852         estimate D2E/DX2                !
 ! D111  D(12,15,16,46)        -64.2764         estimate D2E/DX2                !
 ! D112  D(42,15,16,44)        -63.5982         estimate D2E/DX2                !
 ! D113  D(42,15,16,45)         55.7454         estimate D2E/DX2                !
 ! D114  D(42,15,16,46)        174.7838         estimate D2E/DX2                !
 ! D115  D(43,15,16,44)       -178.7007         estimate D2E/DX2                !
 ! D116  D(43,15,16,45)        -59.3572         estimate D2E/DX2                !
 ! D117  D(43,15,16,46)         59.6813         estimate D2E/DX2                !
 --------------------------------------------------------------------------------
 Trust Radius=3.00D-01 FncErr=1.00D-07 GrdErr=1.00D-06 EigMax=2.50D+02 EigMin=1.00D-04
 Number of steps in this run=    258 maximum allowed number of steps=    276.
 GradGradGradGradGradGradGradGradGradGradGradGradGradGradGradGradGradGrad

                          Input orientation:                          
 ---------------------------------------------------------------------
 Center     Atomic      Atomic             Coordinates (Angstroms)
 Number     Number       Type             X           Y           Z
 ---------------------------------------------------------------------
      1          6           0        0.943870   -0.080750   -0.018120
      2          6           0        0.124780   -1.314450    0.337100
      3          6           0        0.740600   -2.146310    1.469300
      4          6           0        0.651150   -1.521400    2.867600
      5          6           0       -0.737750   -1.345040    3.527780
      6          6           0       -1.907360   -2.180160    2.993520
      7          6           0       -3.076710   -2.277590    3.983940
      8          6           0       -3.689630   -0.919440    4.341590
      9          6           0       -4.982020   -1.022050    5.153780
     10         16           0       -4.727840   -1.677810    6.829560
     11          8           0        1.602630   -2.018250    3.817200
     12          6           0        1.821240   -3.393370    4.142010
     13          6           0        0.547520   -4.223940    4.325940
     14          6           0        2.731420   -4.064600    3.103370
     15          6           0        2.547240   -3.362920    5.518180
     16          6           0        3.859440   -2.583790    5.536170
     17          1           0        0.957450    0.642740    0.801850
     18          1           0        0.511370    0.417080   -0.892050
     19          1           0        1.976830   -0.349900   -0.260180
     20          1           0       -0.896210   -1.008000    0.575920
     21          1           0        0.061880   -1.947700   -0.556300
     22          1           0        0.271710   -3.135060    1.469910
     23          1           0        1.794690   -2.317730    1.221110
     24          1           0        1.010010   -0.492000    2.743990
     25          1           0       -0.639680   -1.493750    4.610250
     26          1           0       -1.023760   -0.290950    3.405680
     27          1           0       -2.279310   -1.747410    2.059370
     28          1           0       -1.591850   -3.198510    2.759980
     29          1           0       -3.849430   -2.916210    3.538310
     30          1           0       -2.727560   -2.787970    4.888540
     31          1           0       -2.962240   -0.302990    4.883270
     32          1           0       -3.919870   -0.384240    3.411700
     33          1           0       -5.421040   -0.024320    5.256290
     34          1           0       -5.712980   -1.652560    4.637410
     35          1           0       -4.417490   -2.930660    6.466450
     36          1           0        0.040410   -4.393460    3.374600
     37          1           0        0.776200   -5.213830    4.737580
     38          1           0       -0.158670   -3.734600    5.003040
     39          1           0        3.541860   -3.397760    2.790610
     40          1           0        3.168190   -4.990340    3.494140
     41          1           0        2.180330   -4.336790    2.198420
     42          1           0        1.882670   -2.895510    6.257270
     43          1           0        2.742780   -4.384760    5.866870
     44          1           0        3.716920   -1.546830    5.217700
     45          1           0        4.266750   -2.566760    6.552520
     46          1           0        4.609720   -3.046820    4.888880
 ---------------------------------------------------------------------
                    Distance matrix (angstroms):
                    1          2          3          4          5
     1  C    0.000000
     2  C    1.522861   0.000000
     3  C    2.553483   1.533982   0.000000
     4  C    3.238601   2.592937   1.534196   0.000000
     5  C    4.123067   3.305349   2.657987   1.547897   0.000000
     6  C    4.648334   3.454796   3.055501   2.644956   1.533247
     7  C    6.083392   4.947385   4.573019   3.964212   2.558997
     8  C    6.417148   5.544520   5.420535   4.623567   3.091443
     9  C    7.921538   7.026045   6.898386   6.099883   4.556537
    10  S    9.033804   8.113691   7.671748   6.682449   5.189731
    11  O    4.347131   3.845838   2.504422   1.433148   2.452418
    12  C    5.389797   4.655881   3.141070   2.549020   3.334871
    13  C    6.016143   4.955268   3.537544   3.072656   3.252237
    14  C    5.367504   4.691497   3.211446   3.294082   4.428461
    15  C    6.632801   6.075206   4.597556   3.743251   4.338743
    16  C    6.753954   6.526043   5.143732   4.306166   5.167426
    17  H    1.093606   2.177137   2.875989   3.007432   3.775668
    18  H    1.094826   2.158346   3.492777   4.232282   4.919376
    19  H    1.094551   2.171909   2.783245   3.593445   4.765280
    20  H    2.144428   1.092413   2.184725   2.812419   2.975262
    21  H    2.133787   1.096871   2.145498   3.500295   4.205035
    22  H    3.463357   2.149295   1.094296   2.168274   2.908266
    23  H    2.695119   2.139309   1.096398   2.157024   3.560913
    24  H    2.793341   2.693172   2.105744   1.097144   2.096824
    25  H    5.091759   4.344693   3.492359   2.168833   1.097029
    26  H    3.954511   3.432620   3.210124   2.146826   1.099007
    27  H    4.181221   2.988866   3.102767   3.048264   2.166688
    28  H    4.885503   3.516653   2.865886   2.802736   2.180448
    29  H    6.607855   5.348619   5.093321   4.759261   3.485863
    30  H    6.699534   5.569803   4.912338   4.135708   2.809459
    31  H    6.271420   5.587522   5.363212   4.313240   2.805633
    32  H    5.959173   5.165041   5.347690   4.741667   3.326034
    33  H    8.266478   7.524559   7.537237   6.694668   5.163841
    34  H    8.273947   7.258542   7.206206   6.606934   5.106737
    35  H    8.883457   7.798287   7.224445   6.374076   4.968949
    36  H    5.561138   4.325948   3.028220   2.979728   3.149899
    37  H    6.999522   5.915550   4.482477   4.140833   4.327031
    38  H    6.307001   5.263883   3.977269   3.180278   2.867355
    39  H    5.063701   4.694287   3.340516   3.447152   4.803347
    40  H    6.433323   5.722011   4.252256   4.331465   5.342819
    41  H    4.955377   4.101748   2.720779   3.273013   4.385540
    42  H    6.941523   6.374821   4.978984   3.859363   4.089092
    43  H    7.509573   6.845370   5.325223   4.644283   5.179317
    44  H    6.103524   6.064464   4.823729   3.862973   4.768714
    45  H    7.771428   7.573351   6.200777   5.267255   5.973832
    46  H    6.805489   6.620762   5.241616   4.699229   5.774434
                    6          7          8          9         10
     6  C    0.000000
     7  C    1.535514   0.000000
     8  C    2.565774   1.532369   0.000000
     9  C    3.932108   2.564198   1.529854   0.000000
    10  S    4.787762   3.344177   2.800536   1.817379   0.000000
    11  O    3.608974   4.689486   5.430505   6.792384   7.018908
    12  C    4.085752   5.025919   6.043993   7.275382   7.283991
    13  C    3.461043   4.127988   5.373398   6.443076   6.370268
    14  C    5.008139   6.140292   7.256384   8.541572   8.673051
    15  C    5.255120   5.929641   6.800993   7.893175   7.581959
    16  C    6.315376   7.114306   7.822119   8.986471   8.731268
    17  H    4.580319   5.910031   6.046943   7.549048   8.604694
    18  H    5.262468   6.626526   6.842929   8.294606   9.563532
    19  H    5.387332   6.875086   7.321846   8.842417   9.847861
    20  H    2.870744   4.240406   4.689489   6.136028   7.364648
    21  H    4.066100   5.529318   6.254636   7.674814   8.807110
    22  H    2.825167   4.274052   5.371009   6.755545   7.472946
    23  H    4.106767   5.600480   6.463001   7.941566   8.625984
    24  H    3.379822   4.628940   4.982133   6.480159   7.142895
    25  H    2.166100   2.635486   3.115157   4.401573   4.655348
    26  H    2.125968   2.914743   2.894441   4.388415   5.231304
    27  H    1.094649   2.149630   2.807680   4.172069   5.362355
    28  H    1.091386   2.133303   3.477978   4.686204   5.358026
    29  H    2.147138   1.097050   2.158213   2.735022   3.624578
    30  H    2.152501   1.095762   2.171667   2.876007   3.000189
    31  H    2.864907   2.172773   1.096597   2.160957   2.965724
    32  H    2.729542   2.150152   1.097335   2.137711   3.742714
    33  H    4.702523   3.491702   2.153067   1.094857   2.385316
    34  H    4.178933   2.787042   2.172307   1.094753   2.403468
    35  H    4.350316   2.896040   3.014932   2.384238   1.340820
    36  H    2.972831   3.816365   5.188168   6.305291   6.484421
    37  H    4.409806   4.902489   6.208239   7.134517   6.868353
    38  H    3.084213   3.417075   4.564025   5.535825   5.333280
    39  H    5.587282   6.817939   7.800132   9.158881   9.362654
    40  H    5.823138   6.826250   8.019981   9.215620   9.189405
    41  H    4.689610   5.921559   7.122351   8.427391   8.731577
    42  H    5.052536   5.490474   6.214918   7.200799   6.746047
    43  H    5.894082   6.469316   7.463968   8.455108   8.004031
    44  H    6.081168   6.943312   7.484529   8.714989   8.598210
    45  H    7.136916   7.785090   8.420562   9.480630   9.042656
    46  H    6.842209   7.777650   8.585131   9.806699   9.634856
                   11         12         13         14         15
    11  O    0.000000
    12  C    1.429772   0.000000
    13  C    2.497427   1.531679   0.000000
    14  C    2.443618   1.535497   2.507885   0.000000
    15  C    2.365113   1.556228   2.482271   2.521425   0.000000
    16  C    2.892730   2.598723   3.888903   3.063290   1.526183
    17  H    4.073016   5.309707   6.022610   5.531999   6.388780
    18  H    5.412829   6.448027   6.983394   6.401364   7.715194
    19  H    4.421362   5.354082   6.171192   5.067728   6.541644
    20  H    4.215531   5.078535   5.146773   5.374989   6.467529
    21  H    4.637498   5.221056   5.408640   5.000089   6.714102
    22  H    2.920340   3.099659   3.068980   3.095547   4.649564
    23  H    2.620355   3.112774   3.850849   2.733481   4.485930
    24  H    1.957656   3.321220   4.079686   3.981944   4.278012
    25  H    2.435566   3.143872   2.990688   4.499364   3.804549
    26  H    3.170306   4.273314   4.334075   5.332279   5.162528
    27  H    4.269986   4.884781   4.388793   5.618427   6.153765
    28  H    3.565870   3.687433   2.842647   4.422521   4.976622
    29  H    5.532546   5.722642   4.654427   6.694442   6.710948
    30  H    4.526675   4.649236   3.620038   5.883628   5.343270
    31  H    4.991659   5.742961   5.291775   7.052341   6.334087
    32  H    5.773424   6.522926   5.961267   7.607876   7.425180
    33  H    7.441685   8.064908   7.357042   9.349948   8.643398
    34  H    7.370524   7.748568   6.775166   8.915106   8.481292
    35  H    6.640246   6.673745   5.559288   7.981418   7.042267
    36  H    2.877160   2.181846   1.091304   2.724564   3.455596
    37  H    3.426634   2.181946   1.096186   2.795399   2.678019
    38  H    2.730248   2.185830   1.093902   3.474229   2.779472
    39  H    2.591823   2.187884   3.464951   1.095129   2.903467
    40  H    3.374710   2.187310   2.854325   1.095657   2.670358
    41  H    2.886142   2.190098   2.684240   1.093948   3.479059
    42  H    2.608055   2.173928   2.697663   3.469039   1.098353
    43  H    3.331885   2.192540   2.686912   2.782007   1.097259
    44  H    2.579508   2.856645   4.243495   3.432312   2.180968
    45  H    3.857509   3.531906   4.640752   4.061699   2.158806
    46  H    3.353960   2.907496   4.266612   2.784229   2.179395
                   16         17         18         19         20
    16  C    0.000000
    17  H    6.422291   0.000000
    18  H    7.844540   1.766128   0.000000
    19  H    6.490929   1.775494   1.770619   0.000000
    20  H    7.050064   2.492397   2.483359   3.063742   0.000000
    21  H    7.207237   3.058921   2.430423   2.511511   1.755817
    22  H    5.450704   3.897219   4.272469   3.695641   2.586047
    23  H    4.791004   3.105017   3.686671   2.469767   3.061471
    24  H    4.504565   2.249957   3.780986   3.159109   2.932654
    25  H    4.720974   4.649659   5.937297   5.645849   4.071557
    26  H    5.800150   3.402484   4.618270   4.737673   2.921981
    27  H    7.104359   4.215541   4.602585   5.044608   2.158777
    28  H    6.148307   5.008833   5.552778   5.474616   3.170547
    29  H    7.970485   6.577266   7.053757   7.413486   4.597666
    30  H    6.621909   6.484605   7.360587   7.388152   5.012068
    31  H    7.222440   5.737278   6.777816   7.131037   4.828953
    32  H    8.358771   5.626211   6.228986   6.946579   4.192045
    33  H    9.631019   7.808466   8.555139   9.233955   6.583888
    34  H    9.659513   8.029605   8.579095   9.209587   6.333438
    35  H    8.336265   8.587599   9.468292   9.633027   7.127017
    36  H    4.746818   5.729164   6.447279   5.771631   4.491237
    37  H    4.130524   7.058487   7.966807   7.076506   6.148608
    38  H    4.213526   6.169022   7.241373   6.611962   5.251448
    39  H    2.881233   5.192300   6.107279   4.587602   5.505658
    40  H    3.230974   6.623246   7.452352   6.086702   6.394872
    41  H    4.127105   5.314279   5.910644   4.688435   4.814400
    42  H    2.127152   6.567865   7.997906   6.997582   6.600197
    43  H    2.144711   7.356466   8.586027   7.376145   7.255268
    44  H    1.094085   5.648772   7.173670   5.870922   6.566386
    45  H    1.095061   7.370384   8.855947   7.521375   8.050195
    46  H    1.093756   6.607249   7.887600   6.381090   7.285168
                   21         22         23         24         25
    21  H    0.000000
    22  H    2.357834   0.000000
    23  H    2.509729   1.746253   0.000000
    24  H    3.729601   3.025580   2.503633   0.000000
    25  H    5.233689   3.658725   4.253395   2.684754   0.000000
    26  H    4.429528   3.676195   4.101688   2.148133   1.745060
    27  H    3.516108   2.963231   4.198264   3.586696   3.042979
    28  H    3.911146   2.267413   3.822636   3.754348   2.690043
    29  H    5.744753   4.616272   6.130553   5.488342   3.670823
    30  H    6.175218   4.561044   5.841397   4.882622   2.472184
    31  H    6.437336   5.489087   6.332375   4.515641   2.624259
    32  H    5.834703   5.376514   6.418198   4.976059   3.664312
    33  H    8.218759   7.511377   8.579578   6.920172   5.043609
    34  H    7.772435   6.931622   8.275184   7.080292   5.075858
    35  H    8.387490   6.855347   8.153555   7.018656   4.447700
    36  H    4.629706   2.294540   3.467517   4.069298   3.224542
    37  H    6.261232   3.905568   4.668006   5.130765   3.982452
    38  H    5.843622   3.609388   4.486216   4.121113   2.325309
    39  H    5.041304   3.536544   2.585033   3.854333   4.941824
    40  H    5.942464   3.991136   3.767760   5.045347   5.288829
    41  H    4.217116   2.370171   2.276062   4.055824   4.674640
    42  H    7.116063   5.056816   5.069958   4.345289   3.322628
    43  H    7.374524   5.196267   5.172482   5.282845   4.623642
    44  H    6.845370   5.332718   4.501332   3.815661   4.399065
    45  H    8.282481   6.489702   5.881924   5.423641   5.384869
    46  H    7.179199   5.524081   4.680652   4.907705   5.481411
                   26         27         28         29         30
    26  H    0.000000
    27  H    2.347388   0.000000
    28  H    3.032088   1.751898   0.000000
    29  H    3.859273   2.453290   2.404612   0.000000
    30  H    3.367034   3.047605   2.447274   1.760159   0.000000
    31  H    2.437442   3.244558   3.843223   3.070007   2.496042
    32  H    2.897618   2.525563   3.710058   2.536112   3.062773
    33  H    4.778276   4.802062   5.565046   3.712740   3.876575
    34  H    5.035864   4.294808   4.785229   2.505524   3.203897
    35  H    5.277669   5.039271   4.668394   2.982768   2.316468
    36  H    4.238397   3.756662   2.114222   4.164123   3.539953
    37  H    5.408194   5.340882   3.685116   5.302241   4.264261
    38  H    3.893413   4.136572   2.715274   4.054245   2.740149
    39  H    5.556570   6.094620   5.137667   7.444603   6.639185
    40  H    6.297979   6.500032   5.138835   7.317852   6.446290
    41  H    5.300235   5.158741   3.979997   6.338088   5.807148
    42  H    4.833491   6.021842   4.939143   6.344300   4.810323
    43  H    6.083055   6.831842   5.463421   7.143953   5.781997
    44  H    5.228260   6.780122   6.078772   7.870528   6.571156
    45  H    6.562881   7.981894   7.007543   8.664869   7.192923
    46  H    6.444439   7.559982   6.558559   8.567282   7.341845
                   31         32         33         34         35
    31  H    0.000000
    32  H    1.757605   0.000000
    33  H    2.502498   2.405320   0.000000
    34  H    3.073818   2.515203   1.766184   0.000000
    35  H    3.395418   4.007914   3.304302   2.580159   0.000000
    36  H    5.293764   5.635516   7.242760   6.496824   5.618914
    37  H    6.173614   6.865564   8.099744   7.402846   5.930959
    38  H    4.432866   5.282414   6.443823   5.942974   4.574433
    39  H    7.500676   8.071212   9.889047   9.597315   8.779592
    40  H    7.841116   8.453612  10.076775   9.556308   8.403538
    41  H    7.065832   7.369338   9.258984   8.686663   7.982763
    42  H    5.664114   6.933485   7.911376   7.865289   6.303730
    43  H    7.083472   8.150026   9.275462   8.970862   7.330987
    44  H    6.802217   7.933083   9.264008   9.448329   8.345237
    45  H    7.756890   9.035978  10.099381  10.202863   8.692287
    46  H    8.053770   9.056782  10.482683  10.419469   9.164755
                   36         37         38         39         40
    36  H    0.000000
    37  H    1.752743   0.000000
    38  H    1.767921   1.769907   0.000000
    39  H    3.686816   3.838968   4.324607   0.000000
    40  H    3.186466   2.705126   3.862856   1.780701   0.000000
    41  H    2.442513   3.031190   3.701276   1.756767   1.755530
    42  H    3.734644   2.984684   2.538550   3.875938   3.698075
    43  H    3.676179   2.414558   3.096340   3.328074   2.485467
    44  H    5.001704   4.724959   4.455627   3.057344   3.889669
    45  H    5.594458   4.741827   4.832089   3.920203   4.053919
    46  H    4.998507   4.406211   4.819089   2.380383   2.792952
                   41         42         43         44         45
    41  H    0.000000
    42  H    4.317424   0.000000
    43  H    3.711627   1.763538   0.000000
    44  H    4.388740   2.502822   3.069889   0.000000
    45  H    5.142406   2.424683   2.469357   1.767573   0.000000
    46  H    3.847666   3.054863   2.496400   1.776284   1.765158
                   46
    46  H    0.000000
 Stoichiometry    C14H30OS
 Framework group  C1[X(C14H30OS)]
 Deg. of freedom   132
 Full point group                 C1      NOp   1
 Largest Abelian subgroup         C1      NOp   1
 Largest concise Abelian subgroup C1      NOp   1
                         Standard orientation:                         
 ---------------------------------------------------------------------
 Center     Atomic      Atomic             Coordinates (Angstroms)
 Number     Number       Type             X           Y           Z
 ---------------------------------------------------------------------
      1          6           0       -2.301006    3.838604   -0.878908
      2          6           0       -1.611761    3.214312    0.327039
      3          6           0       -1.931887    1.724710    0.505099
      4          6           0       -1.281731    0.785693   -0.519255
      5          6           0        0.257797    0.625055   -0.524918
      6          6           0        1.035242    1.031526    0.732543
      7          6           0        2.439480    0.413520    0.795679
      8          6           0        3.339489    0.820043   -0.376021
      9          6           0        4.797279    0.386045   -0.211864
     10         16           0        5.023180   -1.415877   -0.281968
     11          8           0       -1.923179   -0.487023   -0.669758
     12          6           0       -2.230011   -1.399948    0.386967
     13          6           0       -1.113614   -1.593730    1.417572
     14          6           0       -3.528779   -0.997256    1.100264
     15          6           0       -2.436868   -2.769435   -0.322655
     16          6           0       -3.529070   -2.783179   -1.388555
     17          1           0       -1.925789    3.420966   -1.817397
     18          1           0       -2.116051    4.917507   -0.899044
     19          1           0       -3.383646    3.682755   -0.838369
     20          1           0       -0.535553    3.385637    0.250944
     21          1           0       -1.951882    3.746050    1.224088
     22          1           0       -1.649270    1.426428    1.519319
     23          1           0       -3.021078    1.609872    0.454477
     24          1           0       -1.497209    1.235653   -1.496409
     25          1           0        0.507713   -0.407636   -0.797985
     26          1           0        0.645687    1.243159   -1.346688
     27          1           0        1.133618    2.120917    0.775033
     28          1           0        0.505877    0.731991    1.638730
     29          1           0        2.908488    0.726735    1.736660
     30          1           0        2.340321   -0.676874    0.839315
     31          1           0        2.941458    0.424776   -1.318283
     32          1           0        3.323529    1.913580   -0.465840
     33          1           0        5.394114    0.821984   -1.019612
     34          1           0        5.204961    0.754188    0.735104
     35          1           0        4.418710   -1.698927    0.880916
     36          1           0       -0.988754   -0.707805    2.042465
     37          1           0       -1.340929   -2.423958    2.096301
     38          1           0       -0.154103   -1.806761    0.937386
     39          1           0       -4.283512   -0.644989    0.389214
     40          1           0       -3.946476   -1.833767    1.671442
     41          1           0       -3.363366   -0.183965    1.812948
     42          1           0       -1.498567   -3.056099   -0.816411
     43          1           0       -2.659518   -3.549814    0.415866
     44          1           0       -3.343166   -2.035980   -2.165829
     45          1           0       -3.562979   -3.765074   -1.872178
     46          1           0       -4.515437   -2.596087   -0.954530
 ---------------------------------------------------------------------
 Rotational constants (GHZ):           0.4995096           0.2124328           0.1647684
 Standard basis: 6-31G(d) (6D, 7F)
 There are   304 symmetry adapted cartesian basis functions of A   symmetry.
 There are   304 symmetry adapted basis functions of A   symmetry.
   304 basis functions,   592 primitive gaussians,   304 cartesian basis functions
    69 alpha electrons       69 beta electrons
       nuclear repulsion energy      1316.3950482464 Hartrees.
 NAtoms=   46 NActive=   46 NUniq=   46 SFac= 1.00D+00 NAtFMM=   60 NAOKFM=F Big=F
 Integral buffers will be    131072 words long.
 Raffenetti 2 integral format.
 Two-electron integral symmetry is turned on.
 Nuclear repulsion after empirical dispersion term =     1316.3126220186 Hartrees.
 One-electron integrals computed using PRISM.
 NBasis=   304 RedAO= T EigKep=  2.69D-03  NBF=   304
 NBsUse=   304 1.00D-06 EigRej= -1.00D+00 NBFU=   304
 ExpMin= 1.17D-01 ExpMax= 2.19D+04 ExpMxC= 3.30D+03 IAcc=3 IRadAn=         5 AccDes= 0.00D+00
 Harris functional with IExCor=  402 and IRadAn=       5 diagonalized for initial guess.
 HarFok:  IExCor=  402 AccDes= 0.00D+00 IRadAn=         5 IDoV= 1 UseB2=F ITyADJ=14
 ICtDFT=  3500011 ScaDFX=  1.000000  1.000000  1.000000  1.000000
 FoFCou: FMM=F IPFlag=           0 FMFlag=      100000 FMFlg1=           0
         NFxFlg=           0 DoJE=T BraDBF=F KetDBF=T FulRan=T
         wScrn=  0.000000 ICntrl=       500 IOpCl=  0 I1Cent=   200000004 NGrid=           0
         NMat0=    1 NMatS0=      1 NMatT0=    0 NMatD0=    1 NMtDS0=    0 NMtDT0=    0
 Petite list used in FoFCou.
 Requested convergence on RMS density matrix=1.00D-08 within  32 cycles.
 Requested convergence on MAX density matrix=1.00D-06.
 Requested convergence on             energy=1.00D-06.
 No special actions if energy rises.
 Integral accuracy reduced to 1.0D-05 until final iterations.
 Initial convergence to 1.0D-05 achieved.  Increase integral accuracy.
 SCF Done:  E(RB3LYP) =  -1025.03935112     A.U. after   12 cycles
            NFock= 12  Conv=0.71D-08     -V/T= 2.0072
 QCSCF skips out because SCF is already converged.

 **********************************************************************

            Population analysis using the SCF density.

 **********************************************************************

 Orbital symmetries:
       Occupied  (A) (A) (A) (A) (A) (A) (A) (A) (A) (A) (A) (A)
                 (A) (A) (A) (A) (A) (A) (A) (A) (A) (A) (A) (A)
                 (A) (A) (A) (A) (A) (A) (A) (A) (A) (A) (A) (A)
                 (A) (A) (A) (A) (A) (A) (A) (A) (A) (A) (A) (A)
                 (A) (A) (A) (A) (A) (A) (A) (A) (A) (A) (A) (A)
                 (A) (A) (A) (A) (A) (A) (A) (A) (A)
       Virtual   (A) (A) (A) (A) (A) (A) (A) (A) (A) (A) (A) (A)
                 (A) (A) (A) (A) (A) (A) (A) (A) (A) (A) (A) (A)
                 (A) (A) (A) (A) (A) (A) (A) (A) (A) (A) (A) (A)
                 (A) (A) (A) (A) (A) (A) (A) (A) (A) (A) (A) (A)
                 (A) (A) (A) (A) (A) (A) (A) (A) (A) (A) (A) (A)
                 (A) (A) (A) (A) (A) (A) (A) (A) (A) (A) (A) (A)
                 (A) (A) (A) (A) (A) (A) (A) (A) (A) (A) (A) (A)
                 (A) (A) (A) (A) (A) (A) (A) (A) (A) (A) (A) (A)
                 (A) (A) (A) (A) (A) (A) (A) (A) (A) (A) (A) (A)
                 (A) (A) (A) (A) (A) (A) (A) (A) (A) (A) (A) (A)
                 (A) (A) (A) (A) (A) (A) (A) (A) (A) (A) (A) (A)
                 (A) (A) (A) (A) (A) (A) (A) (A) (A) (A) (A) (A)
                 (A) (A) (A) (A) (A) (A) (A) (A) (A) (A) (A) (A)
                 (A) (A) (A) (A) (A) (A) (A) (A) (A) (A) (A) (A)
                 (A) (A) (A) (A) (A) (A) (A) (A) (A) (A) (A) (A)
                 (A) (A) (A) (A) (A) (A) (A) (A) (A) (A) (A) (A)
                 (A) (A) (A) (A) (A) (A) (A) (A) (A) (A) (A) (A)
                 (A) (A) (A) (A) (A) (A) (A) (A) (A) (A) (A) (A)
                 (A) (A) (A) (A) (A) (A) (A) (A) (A) (A) (A) (A)
                 (A) (A) (A) (A) (A) (A) (A)
 The electronic state is 1-A.
 Alpha  occ. eigenvalues --  -88.86789 -19.12837 -10.23620 -10.22912 -10.21704
 Alpha  occ. eigenvalues --  -10.18717 -10.18318 -10.18277 -10.17896 -10.17849
 Alpha  occ. eigenvalues --  -10.17571 -10.17366 -10.17125 -10.17089 -10.16554
 Alpha  occ. eigenvalues --  -10.15982  -7.93190  -5.89683  -5.89321  -5.88621
 Alpha  occ. eigenvalues --   -1.01123  -0.82239  -0.81018  -0.78775  -0.77715
 Alpha  occ. eigenvalues --   -0.73198  -0.72615  -0.69945  -0.68524  -0.67063
 Alpha  occ. eigenvalues --   -0.63652  -0.61455  -0.59979  -0.57872  -0.56101
 Alpha  occ. eigenvalues --   -0.52615  -0.48279  -0.47865  -0.47407  -0.45322
 Alpha  occ. eigenvalues --   -0.44873  -0.44157  -0.43564  -0.43378  -0.42662
 Alpha  occ. eigenvalues --   -0.42131  -0.40828  -0.40643  -0.39945  -0.38662
 Alpha  occ. eigenvalues --   -0.38557  -0.37598  -0.36938  -0.36338  -0.35919
 Alpha  occ. eigenvalues --   -0.35460  -0.34785  -0.34021  -0.33759  -0.33572
 Alpha  occ. eigenvalues --   -0.33109  -0.32556  -0.32079  -0.31577  -0.31216
 Alpha  occ. eigenvalues --   -0.29918  -0.26992  -0.23899  -0.23345
 Alpha virt. eigenvalues --    0.03372   0.06646   0.07237   0.08455   0.09003
 Alpha virt. eigenvalues --    0.09515   0.10097   0.11396   0.12483   0.12640
 Alpha virt. eigenvalues --    0.13024   0.13726   0.14813   0.14934   0.15387
 Alpha virt. eigenvalues --    0.16498   0.16697   0.16847   0.17393   0.17600
 Alpha virt. eigenvalues --    0.17847   0.18299   0.18963   0.19150   0.19872
 Alpha virt. eigenvalues --    0.20490   0.21184   0.21407   0.21676   0.22265
 Alpha virt. eigenvalues --    0.23462   0.23911   0.24072   0.24582   0.24695
 Alpha virt. eigenvalues --    0.25469   0.26137   0.26959   0.27462   0.28053
 Alpha virt. eigenvalues --    0.28767   0.29469   0.30984   0.32735   0.35256
 Alpha virt. eigenvalues --    0.35949   0.36905   0.39068   0.41744   0.47890
 Alpha virt. eigenvalues --    0.48856   0.50437   0.50940   0.51273   0.52525
 Alpha virt. eigenvalues --    0.53365   0.54307   0.55164   0.56381   0.57109
 Alpha virt. eigenvalues --    0.57519   0.58186   0.58891   0.60350   0.60577
 Alpha virt. eigenvalues --    0.61787   0.63482   0.63572   0.65061   0.65971
 Alpha virt. eigenvalues --    0.66608   0.68079   0.68796   0.69314   0.70882
 Alpha virt. eigenvalues --    0.71380   0.71998   0.73220   0.74410   0.75217
 Alpha virt. eigenvalues --    0.76589   0.77976   0.78936   0.79515   0.80544
 Alpha virt. eigenvalues --    0.82578   0.84363   0.85655   0.85818   0.86005
 Alpha virt. eigenvalues --    0.86248   0.87239   0.87897   0.88274   0.89070
 Alpha virt. eigenvalues --    0.89284   0.89783   0.90220   0.91232   0.92495
 Alpha virt. eigenvalues --    0.92577   0.92915   0.93481   0.94064   0.94242
 Alpha virt. eigenvalues --    0.94709   0.95103   0.95432   0.96601   0.96886
 Alpha virt. eigenvalues --    0.97403   0.97867   0.98404   0.99803   1.00407
 Alpha virt. eigenvalues --    1.01174   1.01818   1.03129   1.04373   1.05592
 Alpha virt. eigenvalues --    1.05786   1.07493   1.09025   1.09972   1.11996
 Alpha virt. eigenvalues --    1.14348   1.16884   1.17604   1.18898   1.20980
 Alpha virt. eigenvalues --    1.24518   1.28348   1.33007   1.35524   1.36724
 Alpha virt. eigenvalues --    1.39242   1.42175   1.44778   1.46681   1.48841
 Alpha virt. eigenvalues --    1.51029   1.54682   1.56305   1.57381   1.60587
 Alpha virt. eigenvalues --    1.62396   1.63290   1.65445   1.67487   1.69736
 Alpha virt. eigenvalues --    1.71284   1.74287   1.77172   1.78778   1.80168
 Alpha virt. eigenvalues --    1.81541   1.82531   1.84553   1.86632   1.89055
 Alpha virt. eigenvalues --    1.89851   1.90481   1.91738   1.92378   1.93761
 Alpha virt. eigenvalues --    1.94906   1.95565   1.95973   1.96730   1.98575
 Alpha virt. eigenvalues --    1.99406   2.00010   2.01908   2.03454   2.05110
 Alpha virt. eigenvalues --    2.05546   2.08351   2.12155   2.12598   2.13728
 Alpha virt. eigenvalues --    2.16537   2.17577   2.19453   2.19926   2.20747
 Alpha virt. eigenvalues --    2.23520   2.26261   2.27895   2.28548   2.30003
 Alpha virt. eigenvalues --    2.30464   2.32172   2.33120   2.33863   2.34391
 Alpha virt. eigenvalues --    2.36250   2.37180   2.38380   2.41685   2.42080
 Alpha virt. eigenvalues --    2.42421   2.45687   2.47087   2.51885   2.54485
 Alpha virt. eigenvalues --    2.56400   2.58692   2.59912   2.62529   2.68847
 Alpha virt. eigenvalues --    2.69729   2.70740   2.74191   2.76401   2.77646
 Alpha virt. eigenvalues --    2.80805   2.88224   3.02058   3.05599   3.91224
 Alpha virt. eigenvalues --    4.01677   4.12719   4.17008   4.18705   4.22639
 Alpha virt. eigenvalues --    4.29239   4.32498   4.32989   4.39284   4.43655
 Alpha virt. eigenvalues --    4.46199   4.50548   4.55028   4.66993   4.71228
          Condensed to atoms (all electrons):
               1          2          3          4          5          6
     1  C    5.072438   0.375256  -0.049263  -0.004402  -0.000316   0.000133
     2  C    0.375256   5.000108   0.349193  -0.025139   0.000385  -0.003814
     3  C   -0.049263   0.349193   5.137880   0.355681  -0.050169  -0.005990
     4  C   -0.004402  -0.025139   0.355681   4.717413   0.331503  -0.027647
     5  C   -0.000316   0.000385  -0.050169   0.331503   5.178909   0.352738
     6  C    0.000133  -0.003814  -0.005990  -0.027647   0.352738   5.027112
     7  C   -0.000002   0.000108   0.000222   0.003040  -0.034505   0.370404
     8  C   -0.000000   0.000001  -0.000003   0.000219  -0.005754  -0.040663
     9  C   -0.000000   0.000000   0.000000  -0.000002   0.000117   0.004261
    10  S   -0.000000  -0.000000   0.000000   0.000000  -0.000122   0.000361
    11  O    0.000020   0.002381  -0.037152   0.254703  -0.054661   0.001476
    12  C    0.000010   0.000137  -0.005737  -0.027322  -0.004442   0.000391
    13  C   -0.000002   0.000038  -0.002731  -0.002555   0.002709  -0.003120
    14  C   -0.000012   0.000115   0.000576  -0.003035  -0.000571   0.000032
    15  C    0.000000   0.000001  -0.000121   0.004382  -0.000074  -0.000019
    16  C   -0.000000   0.000000  -0.000029   0.000092   0.000015  -0.000000
    17  H    0.378772  -0.036479  -0.003863   0.000980  -0.000066   0.000014
    18  H    0.372754  -0.030915   0.004704   0.000154  -0.000011   0.000002
    19  H    0.378312  -0.036105  -0.005101  -0.000419   0.000023  -0.000003
    20  H   -0.040213   0.375032  -0.038502  -0.007703   0.003672  -0.001014
    21  H   -0.041722   0.375719  -0.031223   0.003579  -0.000101   0.000071
    22  H    0.005405  -0.034173   0.359086  -0.034739  -0.009990   0.003644
    23  H   -0.008038  -0.037688   0.366609  -0.031387   0.005636   0.000037
    24  H    0.004587  -0.007286  -0.059207   0.392213  -0.059374   0.004829
    25  H    0.000000  -0.000112   0.004068  -0.032539   0.370695  -0.044282
    26  H    0.000043   0.000509   0.003056  -0.028160   0.353306  -0.035533
    27  H    0.000001  -0.001310   0.000439  -0.002034  -0.035630   0.369870
    28  H    0.000001   0.000385  -0.000706  -0.003877  -0.046908   0.375305
    29  H    0.000000   0.000000  -0.000000  -0.000114   0.004854  -0.034446
    30  H    0.000000  -0.000003   0.000008  -0.000030  -0.006623  -0.036457
    31  H    0.000000  -0.000000   0.000001   0.000024   0.004594  -0.005435
    32  H    0.000000  -0.000007   0.000002  -0.000033  -0.001560  -0.002537
    33  H    0.000000  -0.000000   0.000000  -0.000000   0.000006  -0.000123
    34  H    0.000000   0.000000  -0.000000   0.000000   0.000008  -0.000055
    35  H    0.000000  -0.000000  -0.000000  -0.000000   0.000008  -0.000022
    36  H    0.000001   0.000013  -0.001271   0.001733  -0.000771  -0.002196
    37  H    0.000000  -0.000001   0.000012  -0.000011   0.000020   0.000131
    38  H    0.000000  -0.000004   0.000361  -0.000806  -0.001392  -0.000427
    39  H    0.000000  -0.000003  -0.001271   0.000309   0.000048  -0.000001
    40  H    0.000000  -0.000002   0.000112  -0.000012   0.000015  -0.000000
    41  H    0.000006   0.000113   0.000038  -0.000070   0.000013  -0.000020
    42  H    0.000000  -0.000000   0.000032  -0.000050  -0.000191   0.000003
    43  H    0.000000  -0.000000   0.000009  -0.000133  -0.000003   0.000000
    44  H   -0.000000  -0.000000   0.000029  -0.000219   0.000009  -0.000000
    45  H    0.000000  -0.000000  -0.000000   0.000003   0.000001  -0.000000
    46  H    0.000000  -0.000000   0.000003  -0.000027  -0.000000   0.000000
               7          8          9         10         11         12
     1  C   -0.000002  -0.000000  -0.000000  -0.000000   0.000020   0.000010
     2  C    0.000108   0.000001   0.000000  -0.000000   0.002381   0.000137
     3  C    0.000222  -0.000003   0.000000   0.000000  -0.037152  -0.005737
     4  C    0.003040   0.000219  -0.000002   0.000000   0.254703  -0.027322
     5  C   -0.034505  -0.005754   0.000117  -0.000122  -0.054661  -0.004442
     6  C    0.370404  -0.040663   0.004261   0.000361   0.001476   0.000391
     7  C    5.021743   0.388754  -0.043414  -0.012226  -0.000084  -0.000025
     8  C    0.388754   5.047227   0.345096  -0.059684   0.000002  -0.000001
     9  C   -0.043414   0.345096   5.206566   0.265774   0.000000  -0.000000
    10  S   -0.012226  -0.059684   0.265774  15.700442  -0.000000  -0.000000
    11  O   -0.000084   0.000002   0.000000  -0.000000   8.310916   0.241812
    12  C   -0.000025  -0.000001  -0.000000  -0.000000   0.241812   4.569222
    13  C   -0.000397   0.000010   0.000000  -0.000000  -0.044408   0.358825
    14  C   -0.000001   0.000000   0.000000  -0.000000  -0.060272   0.357253
    15  C    0.000001  -0.000000   0.000000  -0.000000  -0.058223   0.403051
    16  C    0.000000  -0.000000  -0.000000   0.000000  -0.004874  -0.032741
    17  H   -0.000001   0.000000  -0.000000  -0.000000  -0.000075   0.000001
    18  H   -0.000000   0.000000  -0.000000   0.000000  -0.000000   0.000000
    19  H    0.000000   0.000000   0.000000   0.000000  -0.000013   0.000000
    20  H   -0.000026  -0.000004  -0.000000   0.000000   0.000006  -0.000005
    21  H   -0.000003   0.000000   0.000000  -0.000000  -0.000053  -0.000004
    22  H   -0.000133  -0.000002  -0.000000   0.000000  -0.000394   0.002980
    23  H   -0.000001   0.000000  -0.000000   0.000000   0.001245  -0.002464
    24  H   -0.000131  -0.000012  -0.000000   0.000000  -0.043948   0.005483
    25  H   -0.004293  -0.002016  -0.000065   0.000132   0.001196   0.000384
    26  H   -0.004831   0.003999  -0.000003   0.000012   0.003620   0.000016
    27  H   -0.037812  -0.007168  -0.000022  -0.000001  -0.000064   0.000004
    28  H   -0.035469   0.004976  -0.000139   0.000018   0.000569  -0.000003
    29  H    0.369142  -0.044480  -0.004781  -0.000891   0.000000   0.000001
    30  H    0.367001  -0.039913  -0.003075   0.008527  -0.000017  -0.000009
    31  H   -0.035183   0.377445  -0.040600   0.000530  -0.000001  -0.000000
    32  H   -0.044368   0.357985  -0.033847   0.007008  -0.000000   0.000000
    33  H    0.004273  -0.032862   0.373616  -0.039880   0.000000   0.000000
    34  H   -0.005991  -0.043329   0.366264  -0.042937  -0.000000  -0.000000
    35  H    0.003396  -0.005251  -0.017824   0.255238   0.000000   0.000000
    36  H   -0.000083   0.000002   0.000000   0.000000  -0.001014  -0.027147
    37  H   -0.000000   0.000000  -0.000000   0.000000   0.002758  -0.020178
    38  H   -0.000108  -0.000019   0.000000  -0.000011  -0.000218  -0.024616
    39  H    0.000000  -0.000000   0.000000   0.000000   0.001864  -0.023144
    40  H    0.000000  -0.000000  -0.000000   0.000000   0.003289  -0.023797
    41  H    0.000000  -0.000000   0.000000  -0.000000  -0.000335  -0.027083
    42  H   -0.000001   0.000000   0.000000   0.000000   0.001244  -0.031210
    43  H   -0.000000   0.000000  -0.000000   0.000000   0.003567  -0.031174
    44  H    0.000000   0.000000   0.000000   0.000000   0.011194  -0.007645
    45  H    0.000000   0.000000   0.000000  -0.000000   0.000140   0.004425
    46  H    0.000000   0.000000   0.000000   0.000000  -0.000143  -0.006802
              13         14         15         16         17         18
     1  C   -0.000002  -0.000012   0.000000  -0.000000   0.378772   0.372754
     2  C    0.000038   0.000115   0.000001   0.000000  -0.036479  -0.030915
     3  C   -0.002731   0.000576  -0.000121  -0.000029  -0.003863   0.004704
     4  C   -0.002555  -0.003035   0.004382   0.000092   0.000980   0.000154
     5  C    0.002709  -0.000571  -0.000074   0.000015  -0.000066  -0.000011
     6  C   -0.003120   0.000032  -0.000019  -0.000000   0.000014   0.000002
     7  C   -0.000397  -0.000001   0.000001   0.000000  -0.000001  -0.000000
     8  C    0.000010   0.000000  -0.000000  -0.000000   0.000000   0.000000
     9  C    0.000000   0.000000   0.000000  -0.000000  -0.000000  -0.000000
    10  S   -0.000000  -0.000000  -0.000000   0.000000  -0.000000   0.000000
    11  O   -0.044408  -0.060272  -0.058223  -0.004874  -0.000075  -0.000000
    12  C    0.358825   0.357253   0.403051  -0.032741   0.000001   0.000000
    13  C    5.253450  -0.081788  -0.064327   0.005495  -0.000000   0.000000
    14  C   -0.081788   5.252471  -0.064990  -0.008837   0.000001   0.000000
    15  C   -0.064327  -0.064990   5.052007   0.369068  -0.000000  -0.000000
    16  C    0.005495  -0.008837   0.369068   5.077964  -0.000000   0.000000
    17  H   -0.000000   0.000001  -0.000000  -0.000000   0.568790  -0.030156
    18  H    0.000000   0.000000  -0.000000   0.000000  -0.030156   0.577918
    19  H   -0.000000  -0.000007  -0.000000  -0.000000  -0.031345  -0.030359
    20  H    0.000003  -0.000003   0.000000  -0.000000  -0.004722  -0.002240
    21  H    0.000000   0.000013  -0.000000  -0.000000   0.005444  -0.004183
    22  H   -0.001952  -0.002900   0.000004  -0.000001  -0.000042  -0.000179
    23  H    0.000676  -0.000410  -0.000060   0.000005  -0.000252   0.000061
    24  H   -0.000267  -0.000176  -0.000255   0.000022   0.004517  -0.000164
    25  H   -0.001417   0.000149  -0.000518  -0.000017  -0.000001   0.000000
    26  H   -0.000013   0.000007   0.000009  -0.000000   0.000288  -0.000008
    27  H    0.000091  -0.000001   0.000000  -0.000000   0.000001  -0.000002
    28  H   -0.000176   0.000030   0.000008  -0.000000   0.000001   0.000000
    29  H    0.000006   0.000000  -0.000000  -0.000000   0.000000   0.000000
    30  H    0.000151  -0.000000   0.000001  -0.000000   0.000000  -0.000000
    31  H    0.000000   0.000000  -0.000000  -0.000000   0.000000   0.000000
    32  H   -0.000000  -0.000000   0.000000   0.000000   0.000000  -0.000000
    33  H    0.000000   0.000000  -0.000000   0.000000   0.000000   0.000000
    34  H    0.000000   0.000000  -0.000000  -0.000000  -0.000000   0.000000
    35  H   -0.000000   0.000000  -0.000000  -0.000000   0.000000   0.000000
    36  H    0.358686  -0.007249   0.005726  -0.000183  -0.000000  -0.000000
    37  H    0.352969  -0.000570  -0.004968   0.000001   0.000000   0.000000
    38  H    0.363074   0.006047  -0.005710  -0.000048   0.000000  -0.000000
    39  H    0.005960   0.362349  -0.005900   0.001699  -0.000000  -0.000000
    40  H    0.002003   0.347223  -0.004368  -0.000117  -0.000000  -0.000000
    41  H   -0.008056   0.363038   0.005513   0.000154  -0.000000  -0.000000
    42  H   -0.006914   0.006854   0.362760  -0.040877   0.000000  -0.000000
    43  H   -0.004139  -0.001848   0.358338  -0.040627   0.000000  -0.000000
    44  H    0.000311  -0.000198  -0.033769   0.377969   0.000000  -0.000000
    45  H   -0.000113  -0.000029  -0.029411   0.369794  -0.000000  -0.000000
    46  H    0.000066   0.004827  -0.035932   0.376754   0.000000  -0.000000
              19         20         21         22         23         24
     1  C    0.378312  -0.040213  -0.041722   0.005405  -0.008038   0.004587
     2  C   -0.036105   0.375032   0.375719  -0.034173  -0.037688  -0.007286
     3  C   -0.005101  -0.038502  -0.031223   0.359086   0.366609  -0.059207
     4  C   -0.000419  -0.007703   0.003579  -0.034739  -0.031387   0.392213
     5  C    0.000023   0.003672  -0.000101  -0.009990   0.005636  -0.059374
     6  C   -0.000003  -0.001014   0.000071   0.003644   0.000037   0.004829
     7  C    0.000000  -0.000026  -0.000003  -0.000133  -0.000001  -0.000131
     8  C    0.000000  -0.000004   0.000000  -0.000002   0.000000  -0.000012
     9  C    0.000000  -0.000000   0.000000  -0.000000  -0.000000  -0.000000
    10  S    0.000000   0.000000  -0.000000   0.000000   0.000000   0.000000
    11  O   -0.000013   0.000006  -0.000053  -0.000394   0.001245  -0.043948
    12  C    0.000000  -0.000005  -0.000004   0.002980  -0.002464   0.005483
    13  C   -0.000000   0.000003   0.000000  -0.001952   0.000676  -0.000267
    14  C   -0.000007  -0.000003   0.000013  -0.002900  -0.000410  -0.000176
    15  C   -0.000000   0.000000  -0.000000   0.000004  -0.000060  -0.000255
    16  C   -0.000000  -0.000000  -0.000000  -0.000001   0.000005   0.000022
    17  H   -0.031345  -0.004722   0.005444  -0.000042  -0.000252   0.004517
    18  H   -0.030359  -0.002240  -0.004183  -0.000179   0.000061  -0.000164
    19  H    0.572105   0.005305  -0.004104   0.000063   0.006327   0.000188
    20  H    0.005305   0.596371  -0.036597  -0.001782   0.005561  -0.000162
    21  H   -0.004104  -0.036597   0.605412  -0.005481  -0.002331   0.000030
    22  H    0.000063  -0.001782  -0.005481   0.614276  -0.041881   0.006852
    23  H    0.006327   0.005561  -0.002331  -0.041881   0.592863  -0.005184
    24  H    0.000188  -0.000162   0.000030   0.006852  -0.005184   0.636272
    25  H   -0.000000  -0.000023   0.000003   0.000127  -0.000123   0.001963
    26  H   -0.000002  -0.000175   0.000019  -0.000069  -0.000139  -0.010665
    27  H    0.000001   0.006769   0.000067   0.000115   0.000014  -0.000031
    28  H    0.000000  -0.000161  -0.000010   0.002078  -0.000059   0.000042
    29  H   -0.000000  -0.000002   0.000000   0.000015  -0.000000   0.000004
    30  H   -0.000000   0.000002   0.000000   0.000002  -0.000000  -0.000005
    31  H   -0.000000  -0.000002   0.000000  -0.000000  -0.000000   0.000006
    32  H   -0.000000   0.000004   0.000000  -0.000000  -0.000000  -0.000001
    33  H   -0.000000   0.000000  -0.000000   0.000000   0.000000   0.000000
    34  H   -0.000000   0.000000  -0.000000   0.000000   0.000000   0.000000
    35  H   -0.000000   0.000000  -0.000000   0.000000   0.000000   0.000000
    36  H   -0.000000  -0.000002  -0.000008   0.004093  -0.000152   0.000007
    37  H    0.000000   0.000000   0.000000   0.000068  -0.000015   0.000008
    38  H   -0.000000  -0.000000   0.000000  -0.000075  -0.000022  -0.000003
    39  H    0.000001  -0.000000   0.000000  -0.000058   0.002641  -0.000087
    40  H    0.000000   0.000000  -0.000000   0.000055   0.000199   0.000007
    41  H   -0.000004  -0.000000  -0.000017   0.002703   0.000533   0.000010
    42  H    0.000000   0.000000   0.000000  -0.000001  -0.000003  -0.000002
    43  H    0.000000  -0.000000   0.000000   0.000000   0.000001   0.000005
    44  H    0.000000   0.000000   0.000000  -0.000001   0.000013   0.000001
    45  H   -0.000000   0.000000  -0.000000  -0.000000   0.000000  -0.000002
    46  H    0.000000  -0.000000   0.000000  -0.000000  -0.000005   0.000000
              25         26         27         28         29         30
     1  C    0.000000   0.000043   0.000001   0.000001   0.000000   0.000000
     2  C   -0.000112   0.000509  -0.001310   0.000385   0.000000  -0.000003
     3  C    0.004068   0.003056   0.000439  -0.000706  -0.000000   0.000008
     4  C   -0.032539  -0.028160  -0.002034  -0.003877  -0.000114  -0.000030
     5  C    0.370695   0.353306  -0.035630  -0.046908   0.004854  -0.006623
     6  C   -0.044282  -0.035533   0.369870   0.375305  -0.034446  -0.036457
     7  C   -0.004293  -0.004831  -0.037812  -0.035469   0.369142   0.367001
     8  C   -0.002016   0.003999  -0.007168   0.004976  -0.044480  -0.039913
     9  C   -0.000065  -0.000003  -0.000022  -0.000139  -0.004781  -0.003075
    10  S    0.000132   0.000012  -0.000001   0.000018  -0.000891   0.008527
    11  O    0.001196   0.003620  -0.000064   0.000569   0.000000  -0.000017
    12  C    0.000384   0.000016   0.000004  -0.000003   0.000001  -0.000009
    13  C   -0.001417  -0.000013   0.000091  -0.000176   0.000006   0.000151
    14  C    0.000149   0.000007  -0.000001   0.000030   0.000000  -0.000000
    15  C   -0.000518   0.000009   0.000000   0.000008  -0.000000   0.000001
    16  C   -0.000017  -0.000000  -0.000000  -0.000000  -0.000000  -0.000000
    17  H   -0.000001   0.000288   0.000001   0.000001   0.000000   0.000000
    18  H    0.000000  -0.000008  -0.000002   0.000000   0.000000  -0.000000
    19  H   -0.000000  -0.000002   0.000001   0.000000  -0.000000  -0.000000
    20  H   -0.000023  -0.000175   0.006769  -0.000161  -0.000002   0.000002
    21  H    0.000003   0.000019   0.000067  -0.000010   0.000000   0.000000
    22  H    0.000127  -0.000069   0.000115   0.002078   0.000015   0.000002
    23  H   -0.000123  -0.000139   0.000014  -0.000059  -0.000000  -0.000000
    24  H    0.001963  -0.010665  -0.000031   0.000042   0.000004  -0.000005
    25  H    0.567115  -0.033162   0.005273  -0.001162   0.000216   0.004973
    26  H   -0.033162   0.617281  -0.009970   0.006043  -0.000193  -0.000038
    27  H    0.005273  -0.009970   0.608168  -0.039029  -0.003426   0.005728
    28  H   -0.001162   0.006043  -0.039029   0.602712  -0.003550  -0.003492
    29  H    0.000216  -0.000193  -0.003426  -0.003550   0.622393  -0.038560
    30  H    0.004973  -0.000038   0.005728  -0.003492  -0.038560   0.602031
    31  H    0.001780   0.000120  -0.000114  -0.000050   0.005615  -0.005552
    32  H    0.000201   0.000808   0.005750   0.000073  -0.003883   0.006135
    33  H    0.000001   0.000002  -0.000007   0.000002   0.000076  -0.000081
    34  H    0.000001  -0.000002  -0.000001  -0.000009   0.006673   0.000097
    35  H   -0.000003  -0.000000  -0.000002   0.000007   0.000569  -0.000080
    36  H   -0.000312   0.000021   0.000049   0.006342  -0.000004   0.000021
    37  H    0.000005  -0.000001  -0.000003   0.000035   0.000001  -0.000028
    38  H    0.003752   0.000072   0.000056  -0.000009  -0.000019   0.002422
    39  H    0.000001  -0.000001   0.000000  -0.000001  -0.000000  -0.000000
    40  H   -0.000002  -0.000000   0.000000  -0.000002  -0.000000   0.000000
    41  H   -0.000013  -0.000001   0.000001  -0.000068   0.000000   0.000000
    42  H    0.000578   0.000003  -0.000000   0.000001   0.000000  -0.000002
    43  H    0.000023  -0.000000   0.000000  -0.000000   0.000000   0.000000
    44  H    0.000029  -0.000001   0.000000  -0.000000  -0.000000   0.000000
    45  H   -0.000001  -0.000000   0.000000   0.000000  -0.000000   0.000000
    46  H    0.000001  -0.000000  -0.000000  -0.000000   0.000000  -0.000000
              31         32         33         34         35         36
     1  C    0.000000   0.000000   0.000000   0.000000   0.000000   0.000001
     2  C   -0.000000  -0.000007  -0.000000   0.000000  -0.000000   0.000013
     3  C    0.000001   0.000002   0.000000  -0.000000  -0.000000  -0.001271
     4  C    0.000024  -0.000033  -0.000000   0.000000  -0.000000   0.001733
     5  C    0.004594  -0.001560   0.000006   0.000008   0.000008  -0.000771
     6  C   -0.005435  -0.002537  -0.000123  -0.000055  -0.000022  -0.002196
     7  C   -0.035183  -0.044368   0.004273  -0.005991   0.003396  -0.000083
     8  C    0.377445   0.357985  -0.032862  -0.043329  -0.005251   0.000002
     9  C   -0.040600  -0.033847   0.373616   0.366264  -0.017824   0.000000
    10  S    0.000530   0.007008  -0.039880  -0.042937   0.255238   0.000000
    11  O   -0.000001  -0.000000   0.000000  -0.000000   0.000000  -0.001014
    12  C   -0.000000   0.000000   0.000000  -0.000000   0.000000  -0.027147
    13  C    0.000000  -0.000000   0.000000   0.000000  -0.000000   0.358686
    14  C    0.000000  -0.000000   0.000000   0.000000   0.000000  -0.007249
    15  C   -0.000000   0.000000  -0.000000  -0.000000  -0.000000   0.005726
    16  C   -0.000000   0.000000   0.000000  -0.000000  -0.000000  -0.000183
    17  H    0.000000   0.000000   0.000000  -0.000000   0.000000  -0.000000
    18  H    0.000000  -0.000000   0.000000   0.000000   0.000000  -0.000000
    19  H   -0.000000  -0.000000  -0.000000  -0.000000  -0.000000  -0.000000
    20  H   -0.000002   0.000004   0.000000   0.000000   0.000000  -0.000002
    21  H    0.000000   0.000000  -0.000000  -0.000000  -0.000000  -0.000008
    22  H   -0.000000  -0.000000   0.000000   0.000000   0.000000   0.004093
    23  H   -0.000000  -0.000000   0.000000   0.000000   0.000000  -0.000152
[...]
   427    H   26  S      Ryd( 3S)     0.00002       0.82697
   428    H   26  px     Ryd( 2p)     0.00010       2.19957
   429    H   26  py     Ryd( 2p)     0.00010       2.47913
   430    H   26  pz     Ryd( 2p)     0.00010       2.21283
 
   431    H   27  S      Val( 1S)     0.40608       0.13184
   432    H   27  S      Ryd( 2S)     0.00060       0.60677
   433    H   27  S      Ryd( 4S)     0.00042       1.96246
   434    H   27  S      Ryd( 3S)     0.00003       0.90230
   435    H   27  px     Ryd( 2p)     0.00009       2.04943
   436    H   27  py     Ryd( 2p)     0.00012       2.56390
   437    H   27  pz     Ryd( 2p)     0.00010       2.23663
 
   438    H   28  S      Val( 1S)     0.39337       0.15350
   439    H   28  S      Ryd( 2S)     0.00062       0.56610
   440    H   28  S      Ryd( 4S)     0.00039       2.03009
   441    H   28  S      Ryd( 3S)     0.00004       1.01858
   442    H   28  px     Ryd( 2p)     0.00012       2.23804
   443    H   28  py     Ryd( 2p)     0.00008       2.40734
   444    H   28  pz     Ryd( 2p)     0.00009       2.21211
 
   445    H   29  S      Val( 1S)     0.40402       0.12713
   446    H   29  S      Ryd( 2S)     0.00034       0.47119
   447    H   29  S      Ryd( 4S)     0.00044       1.70552
   448    H   29  S      Ryd( 3S)     0.00003       1.11733
   449    H   29  px     Ryd( 2p)     0.00009       2.02009
   450    H   29  py     Ryd( 2p)     0.00009       1.98573
   451    H   29  pz     Ryd( 2p)     0.00016       2.72387
 
   452    H   30  S      Val( 1S)     0.40392       0.12889
   453    H   30  S      Ryd( 2S)     0.00047       0.64081
   454    H   30  S      Ryd( 4S)     0.00056       1.87761
   455    H   30  S      Ryd( 3S)     0.00004       0.94420
   456    H   30  px     Ryd( 2p)     0.00009       1.93323
   457    H   30  py     Ryd( 2p)     0.00014       2.64837
   458    H   30  pz     Ryd( 2p)     0.00009       2.18115
 
   459    H   31  S      Val( 1S)     0.39854       0.13210
   460    H   31  S      Ryd( 2S)     0.00068       0.54426
   461    H   31  S      Ryd( 4S)     0.00044       1.80066
   462    H   31  S      Ryd( 3S)     0.00002       1.06564
   463    H   31  px     Ryd( 2p)     0.00008       2.00408
   464    H   31  py     Ryd( 2p)     0.00005       1.91205
   465    H   31  pz     Ryd( 2p)     0.00013       2.75961
 
   466    H   32  S      Val( 1S)     0.39932       0.12103
   467    H   32  S      Ryd( 2S)     0.00065       0.46429
   468    H   32  S      Ryd( 4S)     0.00057       1.75237
   469    H   32  S      Ryd( 3S)     0.00001       1.07116
   470    H   32  px     Ryd( 2p)     0.00008       1.92871
   471    H   32  py     Ryd( 2p)     0.00015       2.56288
   472    H   32  pz     Ryd( 2p)     0.00007       2.10048
 
   473    H   33  S      Val( 1S)     0.39297       0.11389
   474    H   33  S      Ryd( 2S)     0.00052       0.35020
   475    H   33  S      Ryd( 4S)     0.00040       1.57933
   476    H   33  S      Ryd( 3S)     0.00004       1.12428
   477    H   33  px     Ryd( 2p)     0.00010       2.14039
   478    H   33  py     Ryd( 2p)     0.00014       2.33403
   479    H   33  pz     Ryd( 2p)     0.00007       1.99733
 
   480    H   34  S      Val( 1S)     0.39834       0.11369
   481    H   34  S      Ryd( 2S)     0.00058       0.37082
   482    H   34  S      Ryd( 4S)     0.00062       1.43808
   483    H   34  S      Ryd( 3S)     0.00002       1.23516
   484    H   34  px     Ryd( 2p)     0.00008       1.90785
   485    H   34  py     Ryd( 2p)     0.00009       1.86566
   486    H   34  pz     Ryd( 2p)     0.00016       2.70829
 
   487    H   35  S      Val( 1S)     0.43898      -0.04872
   488    H   35  S      Ryd( 2S)     0.00029       0.46364
   489    H   35  S      Ryd( 3S)     0.00041       0.64977
   490    H   35  S      Ryd( 4S)     0.00011       1.88290
   491    H   35  px     Ryd( 2p)     0.00076       1.66808
   492    H   35  py     Ryd( 2p)     0.00068       1.88553
   493    H   35  pz     Ryd( 2p)     0.00071       1.67536
 
   494    H   36  S      Val( 1S)     0.39801       0.13371
   495    H   36  S      Ryd( 2S)     0.00043       0.56456
   496    H   36  S      Ryd( 4S)     0.00034       1.54152
   497    H   36  S      Ryd( 3S)     0.00003       1.11408
   498    H   36  px     Ryd( 2p)     0.00008       1.93051
   499    H   36  py     Ryd( 2p)     0.00014       2.81509
   500    H   36  pz     Ryd( 2p)     0.00006       1.90441
 
   501    H   37  S      Val( 1S)     0.40007       0.12445
   502    H   37  S      Ryd( 2S)     0.00039       0.44715
   503    H   37  S      Ryd( 4S)     0.00029       1.57096
   504    H   37  S      Ryd( 3S)     0.00001       1.15829
   505    H   37  px     Ryd( 2p)     0.00013       2.71850
   506    H   37  py     Ryd( 2p)     0.00008       2.01263
   507    H   37  pz     Ryd( 2p)     0.00007       1.88334
 
   508    H   38  S      Val( 1S)     0.39662       0.13359
   509    H   38  S      Ryd( 2S)     0.00034       0.58729
   510    H   38  S      Ryd( 4S)     0.00034       1.66280
   511    H   38  S      Ryd( 3S)     0.00002       1.10234
   512    H   38  px     Ryd( 2p)     0.00009       2.07426
   513    H   38  py     Ryd( 2p)     0.00007       2.01274
   514    H   38  pz     Ryd( 2p)     0.00010       2.61169
 
   515    H   39  S      Val( 1S)     0.39538       0.13150
   516    H   39  S      Ryd( 2S)     0.00053       0.64326
   517    H   39  S      Ryd( 4S)     0.00026       1.67445
   518    H   39  S      Ryd( 3S)     0.00001       1.00410
   519    H   39  px     Ryd( 2p)     0.00009       2.15005
   520    H   39  py     Ryd( 2p)     0.00007       2.01432
   521    H   39  pz     Ryd( 2p)     0.00011       2.57717
 
   522    H   40  S      Val( 1S)     0.39244       0.12982
   523    H   40  S      Ryd( 2S)     0.00056       0.41386
   524    H   40  S      Ryd( 4S)     0.00023       1.65230
   525    H   40  S      Ryd( 3S)     0.00001       1.10628
   526    H   40  px     Ryd( 2p)     0.00013       2.70675
   527    H   40  py     Ryd( 2p)     0.00007       2.01633
   528    H   40  pz     Ryd( 2p)     0.00007       1.90758
 
   529    H   41  S      Val( 1S)     0.39518       0.13155
   530    H   41  S      Ryd( 2S)     0.00065       0.58719
   531    H   41  S      Ryd( 4S)     0.00033       1.72861
   532    H   41  S      Ryd( 3S)     0.00001       1.00903
   533    H   41  px     Ryd( 2p)     0.00007       1.95981
   534    H   41  py     Ryd( 2p)     0.00013       2.83185
   535    H   41  pz     Ryd( 2p)     0.00006       1.90318
 
   536    H   42  S      Val( 1S)     0.40007       0.13641
   537    H   42  S      Ryd( 2S)     0.00032       0.51459
   538    H   42  S      Ryd( 4S)     0.00044       1.80825
   539    H   42  S      Ryd( 3S)     0.00003       1.03887
   540    H   42  px     Ryd( 2p)     0.00008       2.10744
   541    H   42  py     Ryd( 2p)     0.00007       2.11533
   542    H   42  pz     Ryd( 2p)     0.00013       2.63977
 
   543    H   43  S      Val( 1S)     0.40346       0.12739
   544    H   43  S      Ryd( 2S)     0.00028       0.42891
   545    H   43  S      Ryd( 4S)     0.00038       1.66872
   546    H   43  S      Ryd( 3S)     0.00001       1.12592
   547    H   43  px     Ryd( 2p)     0.00014       2.75615
   548    H   43  py     Ryd( 2p)     0.00009       2.02577
   549    H   43  pz     Ryd( 2p)     0.00007       1.96976
 
   550    H   44  S      Val( 1S)     0.39450       0.14192
   551    H   44  S      Ryd( 2S)     0.00049       0.62002
   552    H   44  S      Ryd( 4S)     0.00053       1.67775
   553    H   44  S      Ryd( 3S)     0.00009       1.06696
   554    H   44  px     Ryd( 2p)     0.00013       2.75390
   555    H   44  py     Ryd( 2p)     0.00009       2.01166
   556    H   44  pz     Ryd( 2p)     0.00006       1.87765
 
   557    H   45  S      Val( 1S)     0.40239       0.12667
   558    H   45  S      Ryd( 2S)     0.00013       0.45068
   559    H   45  S      Ryd( 3S)     0.00031       1.05265
   560    H   45  S      Ryd( 4S)     0.00003       1.77217
   561    H   45  px     Ryd( 2p)     0.00006       1.87051
   562    H   45  py     Ryd( 2p)     0.00016       2.78670
   563    H   45  pz     Ryd( 2p)     0.00008       1.85323
 
   564    H   46  S      Val( 1S)     0.40402       0.12642
   565    H   46  S      Ryd( 2S)     0.00025       0.49718
   566    H   46  S      Ryd( 3S)     0.00039       0.95234
   567    H   46  S      Ryd( 4S)     0.00007       1.79979
   568    H   46  px     Ryd( 2p)     0.00008       2.00474
   569    H   46  py     Ryd( 2p)     0.00009       1.96502
   570    H   46  pz     Ryd( 2p)     0.00013       2.62749

 WARNING:  Population inversion found on atom  C    1
           Population inversion found on atom  C    2
           Population inversion found on atom  C    3
           Population inversion found on atom  C    4
           Population inversion found on atom  C    5
           Population inversion found on atom  C    6
           Population inversion found on atom  C    7
           Population inversion found on atom  C    8
           Population inversion found on atom  S   10
           Population inversion found on atom  C   12
           Population inversion found on atom  C   13
           Population inversion found on atom  C   14
           Population inversion found on atom  C   15
           Population inversion found on atom  H   17
           Population inversion found on atom  H   18
           Population inversion found on atom  H   19
           Population inversion found on atom  H   20
           Population inversion found on atom  H   21
           Population inversion found on atom  H   22
           Population inversion found on atom  H   23
           Population inversion found on atom  H   25
           Population inversion found on atom  H   26
           Population inversion found on atom  H   27
           Population inversion found on atom  H   28
           Population inversion found on atom  H   29
           Population inversion found on atom  H   30
           Population inversion found on atom  H   31
           Population inversion found on atom  H   32
           Population inversion found on atom  H   33
           Population inversion found on atom  H   34
           Population inversion found on atom  H   35
           Population inversion found on atom  H   36
           Population inversion found on atom  H   37
           Population inversion found on atom  H   38
           Population inversion found on atom  H   39
           Population inversion found on atom  H   40
           Population inversion found on atom  H   41
           Population inversion found on atom  H   42
           Population inversion found on atom  H   43
           Population inversion found on atom  H   44
           Population inversion found on atom  H   45
           Population inversion found on atom  H   46


 Summary of Natural Population Analysis:                  
                                                          
                                       Natural Population 
                Natural  -----------------------------------------------
    Atom  No    Charge         Core      Valence    Rydberg      Total
 -----------------------------------------------------------------------
      C    1   -0.28733      0.99967     2.28248    0.00518     3.28733
      C    2   -0.19188      0.99964     2.18450    0.00774     3.19188
      C    3   -0.20286      0.99960     2.19397    0.00929     3.20286
      C    4    0.07136      0.99952     1.91544    0.01368     2.92864
      C    5   -0.19473      0.99960     2.18729    0.00785     3.19473
      C    6   -0.19088      0.99962     2.18392    0.00734     3.19088
      C    7   -0.19004      0.99963     2.18173    0.00868     3.19004
      C    8   -0.19913      0.99961     2.18925    0.01027     3.19913
      C    9   -0.23875      0.99958     2.22886    0.01031     3.23875
      S   10   -0.02974      4.99967     3.01516    0.01491     8.02974
      O   11   -0.32436      0.99986     3.31244    0.01206     4.32436
      C   12    0.14017      0.99952     1.84482    0.01549     2.85983
      C   13   -0.29437      0.99960     2.28785    0.00692     3.29437
      C   14   -0.30642      0.99961     2.30012    0.00669     3.30642
      C   15   -0.19307      0.99958     2.18405    0.00944     3.19307
      C   16   -0.28740      0.99966     2.28313    0.00461     3.28740
      H   17    0.09537      0.00000     0.40363    0.00100     0.40463
      H   18    0.09989      0.00000     0.39917    0.00094     0.40011
      H   19    0.09685      0.00000     0.40197    0.00118     0.40315
      H   20    0.09440      0.00000     0.40405    0.00155     0.40560
      H   21    0.09681      0.00000     0.40215    0.00103     0.40319
      H   22    0.10105      0.00000     0.39772    0.00123     0.39895
      H   23    0.09634      0.00000     0.40213    0.00153     0.40366
      H   24    0.08403      0.00000     0.41353    0.00243     0.41597
      H   25    0.09956      0.00000     0.39894    0.00150     0.40044
      H   26    0.09837      0.00000     0.40034    0.00128     0.40163
      H   27    0.09256      0.00000     0.40608    0.00136     0.40744
      H   28    0.10528      0.00000     0.39337    0.00135     0.39472
      H   29    0.09484      0.00000     0.40402    0.00114     0.40516
      H   30    0.09467      0.00000     0.40392    0.00141     0.40533
      H   31    0.10005      0.00000     0.39854    0.00141     0.39995
      H   32    0.09915      0.00000     0.39932    0.00153     0.40085
      H   33    0.10575      0.00000     0.39297    0.00127     0.39425
      H   34    0.10012      0.00000     0.39834    0.00154     0.39988
      H   35    0.05807      0.00000     0.43898    0.00295     0.44193
      H   36    0.10092      0.00000     0.39801    0.00107     0.39908
      H   37    0.09896      0.00000     0.40007    0.00097     0.40104
      H   38    0.10242      0.00000     0.39662    0.00096     0.39758
      H   39    0.10355      0.00000     0.39538    0.00107     0.39645
      H   40    0.10648      0.00000     0.39244    0.00108     0.39352
      H   41    0.10357      0.00000     0.39518    0.00125     0.39643
      H   42    0.09887      0.00000     0.40007    0.00106     0.40113
      H   43    0.09556      0.00000     0.40346    0.00098     0.40444
      H   44    0.10411      0.00000     0.39450    0.00140     0.39589
      H   45    0.09685      0.00000     0.40239    0.00077     0.40315
      H   46    0.09497      0.00000     0.40402    0.00101     0.40503
 =======================================================================
   * Total *    0.00000     19.99396    48.81634    0.18970    69.00000

                                 Natural Population      
 --------------------------------------------------------
   Core                      19.99396 ( 99.9698% of  20)
   Valence                   48.81634 ( 99.6252% of  49)
   Natural Minimal Basis     68.81030 ( 99.7251% of  69)
   Natural Rydberg Basis      0.18970 (  0.2749% of  69)
 --------------------------------------------------------

    Atom  No          Natural Electron Configuration
 ----------------------------------------------------------------------------
      C    1      [core]2S( 0.54)2p( 1.74)
      C    2      [core]2S( 0.51)2p( 1.67)
      C    3      [core]2S( 0.51)2p( 1.68)
      C    4      [core]2S( 0.47)2p( 1.45)3p( 0.01)
      C    5      [core]2S( 0.51)2p( 1.68)
      C    6      [core]2S( 0.51)2p( 1.68)
      C    7      [core]2S( 0.51)2p( 1.67)
      C    8      [core]2S( 0.51)2p( 1.68)
      C    9      [core]2S( 0.55)2p( 1.68)
      S   10      [core]3S( 0.86)3p( 2.15)3d( 0.01)
      O   11      [core]2S( 0.80)2p( 2.51)3p( 0.01)
      C   12      [core]2S( 0.45)2p( 1.40)3p( 0.01)
      C   13      [core]2S( 0.54)2p( 1.75)
      C   14      [core]2S( 0.54)2p( 1.76)
      C   15      [core]2S( 0.51)2p( 1.67)
      C   16      [core]2S( 0.54)2p( 1.74)
      H   17            1S( 0.40)
      H   18            1S( 0.40)
      H   19            1S( 0.40)
      H   20            1S( 0.40)
      H   21            1S( 0.40)
      H   22            1S( 0.40)
      H   23            1S( 0.40)
      H   24            1S( 0.41)
      H   25            1S( 0.40)
      H   26            1S( 0.40)
      H   27            1S( 0.41)
      H   28            1S( 0.39)
      H   29            1S( 0.40)
      H   30            1S( 0.40)
      H   31            1S( 0.40)
      H   32            1S( 0.40)
      H   33            1S( 0.39)
      H   34            1S( 0.40)
      H   35            1S( 0.44)
      H   36            1S( 0.40)
      H   37            1S( 0.40)
      H   38            1S( 0.40)
      H   39            1S( 0.40)
      H   40            1S( 0.39)
      H   41            1S( 0.40)
      H   42            1S( 0.40)
      H   43            1S( 0.40)
      H   44            1S( 0.39)
      H   45            1S( 0.40)
      H   46            1S( 0.40)


 NBO analysis skipped by request.
 1\1\GINC-NODE105\SP\UB3LYP\6-311++G(d,p)\C14H30O1S1(1-,2)\VSC10255\10-
 Dec-2020\0\\# B3LYP/6-311++G(d,p) empiricaldispersion=gd3bj scf=xqc po
 p=npa geom=check\\CID_124096075_JID_6226_Energie_anion\\-1,2\C,0,0.346
 4909146,-0.4675291462,0.227451025\C,0,-0.4942603786,-1.7155846807,0.51
 76652039\C,0,0.1715200726,-2.7036827287,1.4870528777\C,0,0.4961980377,
 -2.1376585495,2.880325185\C,0,-0.705641332,-1.4903972104,3.5796453637\
 C,0,-1.8812106185,-2.4443922215,3.8186977698\C,0,-2.9927295519,-1.8396
 532461,4.6857540429\C,0,-3.6930927079,-0.6377829745,4.0439955121\C,0,-
 4.9083796481,-0.1316286176,4.8226889152\S,0,-4.529250572,0.6314869781,
 6.4587304285\O,0,0.948707695,-3.1528792748,3.7769469722\C,0,2.28218929
 85,-3.6987579286,3.7178395694\C,0,2.2723883275,-4.9815294792,2.8714030
 945\C,0,3.3197382586,-2.7095753651,3.1740738352\C,0,2.5908746481,-4.07
 50156463,5.1830901909\C,0,2.603574344,-2.8989038932,6.1601875283\H,0,0
 .4850356909,0.148269819,1.1230397101\H,0,-0.1288894202,0.1611863892,-0
 .5334506752\H,0,1.3426060736,-0.742417392,-0.1413698015\H,0,-1.4762514
 226,-1.415107855,0.9045284948\H,0,-0.6909547273,-2.2413715612,-0.42559
 42529\H,0,-0.4647113717,-3.5869995267,1.6158069469\H,0,1.1027350025,-3
 .0590016447,1.0293768036\H,0,1.2695455709,-1.3662059329,2.7784883578\H
 ,0,-0.3541199464,-1.105905828,4.5457100744\H,0,-1.0266943132,-0.619989
 4128,2.9959400644\H,0,-2.3099390327,-2.7600474481,2.8575120637\H,0,-1.
 494945375,-3.3486223243,4.300689147\H,0,-3.7429419082,-2.6149232412,4.
 8988884863\H,0,-2.567839516,-1.5419542534,5.6536097834\H,0,-2.98680937
 4,0.1896803172,3.9128372141\H,0,-4.0385561294,-0.9237425781,3.03865244
 11\H,0,-5.4079321068,0.6710280119,4.2714147073\H,0,-5.6431049899,-0.93
 03437913,4.9687636438\H,0,-4.1172046849,-0.4934902623,7.0796900656\H,0
 ,2.0961452765,-4.767936271,1.8138650088\H,0,3.2303734135,-5.5079148396
 ,2.9544777554\H,0,1.4787473982,-5.64877325,3.2219942313\H,0,3.30577659
 69,-1.7626695752,3.7210749648\H,0,4.3199310228,-3.1436006276,3.2774964
 194\H,0,3.1619622714,-2.4953968405,2.1123096602\H,0,1.8257184959,-4.79
 57684532,5.4972249832\H,0,3.5530039613,-4.602819044,5.2120962877\H,0,1
 .668291567,-2.3364794157,6.0855807789\H,0,2.7089454508,-3.2541031422,7
 .1910889726\H,0,3.4332197386,-2.2105660414,5.9647601485\\Version=ES64L
 -G16RevA.03\State=2-A\HF=-1025.2527639\S2=0.750035\S2-1=0.\S2A=0.75\RM
 SD=2.146e-09\Dipole=-0.0414303,-0.6898963,0.9683946\Quadrupole=-18.649
 1092,14.4364463,4.2126629,20.0609241,11.6414257,-1.4747192\PG=C01 [X(C
 14H30O1S1)]\\@


 THE WORLD IS NOT A HAMBURGER - YOU CAN'T HAVE IT YOUR WAY.
 Job cpu time:       0 days  2 hours  8 minutes 16.0 seconds.
 Elapsed time:       0 days  0 hours 32 minutes 12.2 seconds.
 File lengths (MBytes):  RWF=    360 Int=      0 D2E=      0 Chk=     36 Scr=      8
 Normal termination of Gaussian 16 at Thu Dec 10 23:37:11 2020.
