 Entering Gaussian System, Link 0=g16
 Initial command:
 /apps/brussel/CO7/ivybridge-ib/software/Gaussian/G16.A.03-intel-2017b/g16/l1.exe "/scratch/brussel/102/vsc10255/3548596[5970].master01.hydra.brussel.vsc/Gau-17336.inp" -scrdir="/scratch/brussel/102/vsc10255/3548596[5970].master01.hydra.brussel.vsc/"
 Entering Link 1 = /apps/brussel/CO7/ivybridge-ib/software/Gaussian/G16.A.03-intel-2017b/g16/l1.exe.bin PID=     17351.
  
 Copyright (c) 1988,1990,1992,1993,1995,1998,2003,2009,2016,
            Gaussian, Inc.  All Rights Reserved.
  
 This is part of the Gaussian(R) 16 program.  It is based on
 the Gaussian(R) 09 system (copyright 2009, Gaussian, Inc.),
 the Gaussian(R) 03 system (copyright 2003, Gaussian, Inc.),
 the Gaussian(R) 98 system (copyright 1998, Gaussian, Inc.),
 the Gaussian(R) 94 system (copyright 1995, Gaussian, Inc.),
 the Gaussian 92(TM) system (copyright 1992, Gaussian, Inc.),
 the Gaussian 90(TM) system (copyright 1990, Gaussian, Inc.),
 the Gaussian 88(TM) system (copyright 1988, Gaussian, Inc.),
 the Gaussian 86(TM) system (copyright 1986, Carnegie Mellon
 University), and the Gaussian 82(TM) system (copyright 1983,
 Carnegie Mellon University). Gaussian is a federally registered
 trademark of Gaussian, Inc.
  
 This software contains proprietary and confidential information,
 including trade secrets, belonging to Gaussian, Inc.
  
 This software is provided under written license and may be
 used, copied, transmitted, or stored only in accord with that
 written license.
  
 The following legend is applicable only to US Government
 contracts under FAR:
  
                    RESTRICTED RIGHTS LEGEND
  
 Use, reproduction and disclosure by the US Government is
 subject to restrictions as set forth in subparagraphs (a)
 and (c) of the Commercial Computer Software - Restricted
 Rights clause in FAR 52.227-19.
  
 Gaussian, Inc.
 340 Quinnipiac St., Bldg. 40, Wallingford CT 06492
  
  
 ---------------------------------------------------------------
 Warning -- This program may not be used in any manner that
 competes with the business of Gaussian, Inc. or will provide
 assistance to any competitor of Gaussian, Inc.  The licensee
 of this program is prohibited from giving any competitor of
 Gaussian, Inc. access to this program.  By using this program,
 the user acknowledges that Gaussian, Inc. is engaged in the
 business of creating and licensing software in the field of
 computational chemistry and represents and warrants to the
 licensee that it is not a competitor of Gaussian, Inc. and that
 it will not use this program in any manner prohibited above.
 ---------------------------------------------------------------
  

 Cite this work as:
 Gaussian 16, Revision A.03,
 M. J. Frisch, G. W. Trucks, H. B. Schlegel, G. E. Scuseria, 
 M. A. Robb, J. R. Cheeseman, G. Scalmani, V. Barone, 
 G. A. Petersson, H. Nakatsuji, X. Li, M. Caricato, A. V. Marenich, 
 J. Bloino, B. G. Janesko, R. Gomperts, B. Mennucci, H. P. Hratchian, 
 J. V. Ortiz, A. F. Izmaylov, J. L. Sonnenberg, D. Williams-Young, 
 F. Ding, F. Lipparini, F. Egidi, J. Goings, B. Peng, A. Petrone, 
 T. Henderson, D. Ranasinghe, V. G. Zakrzewski, J. Gao, N. Rega, 
 G. Zheng, W. Liang, M. Hada, M. Ehara, K. Toyota, R. Fukuda, 
 J. Hasegawa, M. Ishida, T. Nakajima, Y. Honda, O. Kitao, H. Nakai, 
 T. Vreven, K. Throssell, J. A. Montgomery, Jr., J. E. Peralta, 
 F. Ogliaro, M. J. Bearpark, J. J. Heyd, E. N. Brothers, K. N. Kudin, 
 V. N. Staroverov, T. A. Keith, R. Kobayashi, J. Normand, 
 K. Raghavachari, A. P. Rendell, J. C. Burant, S. S. Iyengar, 
 J. Tomasi, M. Cossi, J. M. Millam, M. Klene, C. Adamo, R. Cammi, 
 J. W. Ochterski, R. L. Martin, K. Morokuma, O. Farkas, 
 J. B. Foresman, and D. J. Fox, Gaussian, Inc., Wallingford CT, 2016.
 
 ******************************************
 Gaussian 16:  ES64L-G16RevA.03 25-Dec-2016
                10-Dec-2020 
 ******************************************
 %chk=JID_5970.chk
 %mem=8GB
 %nprocshared=4
 Will use up to    4 processors via shared memory.
 -----------------------------------------------------------
 # opt freq B3LYP/6-31G(d) empiricaldispersion=gd3bj scf=xqc
 -----------------------------------------------------------
 1/18=20,19=15,26=3,38=1/1,3;
 2/9=110,12=2,17=6,18=5,40=1/2;
 3/5=1,6=6,7=1,11=2,25=1,30=1,71=1,74=-5,124=41/1,2,3;
 4//1;
 5/5=2,8=3,13=1,38=5/2,8;
 6/7=2,8=2,9=2,10=2,28=1/1;
 7//1,2,3,16;
 1/18=20,19=15,26=3/3(2);
 2/9=110/2;
 99//99;
 2/9=110/2;
 3/5=1,6=6,7=1,11=2,25=1,30=1,71=1,74=-5,124=41/1,2,3;
 4/5=5,16=3,69=1/1;
 5/5=2,8=3,13=1,38=5/2,8;
 7//1,2,3,16;
 1/18=20,19=15,26=3/3(-5);
 2/9=110/2;
 6/7=2,8=2,9=2,10=2,19=2,28=1/1;
 99/9=1/99;
 ------------------------------
 CID_90401960_JID_5970_neutraal
 ------------------------------
 Symbolic Z-matrix:
 Charge =  0 Multiplicity = 1
 C                     1.03801  -0.09143   0.01399 
 C                     0.67331   0.18989  -1.43613 
 C                     1.11988  -0.91012  -2.40264 
 C                     0.58787  -2.31456  -2.09689 
 C                    -0.93947  -2.4557   -2.11292 
 C                    -1.57103  -2.37566  -3.51383 
 C                    -1.28644  -3.5606   -4.45684 
 O                    -1.8848   -4.78767  -4.01668 
 C                    -1.08891  -5.63623  -3.34086 
 O                     0.08435  -5.49951  -3.04664 
 O                    -1.78225  -6.73641  -3.01209 
 O                    -2.99387  -2.09199  -3.4774 
 C                    -3.82196  -2.84526  -2.73196 
 O                    -3.56068  -3.74365  -1.95547 
 O                    -5.08714  -2.45082  -2.94786 
 H                     0.4711   -0.93759   0.41315 
 H                     0.80794   0.78078   0.63442 
 H                     2.10601  -0.30771   0.11683 
 H                    -0.4064    0.35556  -1.51736 
 H                     1.15195   1.12893  -1.73995 
 H                     0.83886  -0.61912  -3.42108 
 H                     2.21657  -0.95399  -2.3953 
 H                     1.0344   -3.01277  -2.81269 
 H                     0.95476  -2.62944  -1.11285 
 H                    -1.18407  -3.41608  -1.64786 
 H                    -1.39601  -1.70138  -1.46196 
 H                    -1.15423  -1.48971  -4.00582 
 H                    -1.74338  -3.3481   -5.4304 
 H                    -0.21244  -3.68085  -4.63755 
 H                    -1.13947  -7.26767  -2.50412 
 H                    -5.60407  -3.05735  -2.3823 
 

 GradGradGradGradGradGradGradGradGradGradGradGradGradGradGradGradGradGrad
 Berny optimization.
 Initialization pass.
                           ----------------------------
                           !    Initial Parameters    !
                           ! (Angstroms and Degrees)  !
 --------------------------                            --------------------------
 ! Name  Definition              Value          Derivative Info.                !
 --------------------------------------------------------------------------------
 ! R1    R(1,2)                  1.5215         estimate D2E/DX2                !
 ! R2    R(1,16)                 1.0939         estimate D2E/DX2                !
 ! R3    R(1,17)                 1.0948         estimate D2E/DX2                !
 ! R4    R(1,18)                 1.0945         estimate D2E/DX2                !
 ! R5    R(2,3)                  1.5309         estimate D2E/DX2                !
 ! R6    R(2,19)                 1.0954         estimate D2E/DX2                !
 ! R7    R(2,20)                 1.0969         estimate D2E/DX2                !
 ! R8    R(3,4)                  1.5326         estimate D2E/DX2                !
 ! R9    R(3,21)                 1.0958         estimate D2E/DX2                !
 ! R10   R(3,22)                 1.0976         estimate D2E/DX2                !
 ! R11   R(4,5)                  1.5339         estimate D2E/DX2                !
 ! R12   R(4,23)                 1.0951         estimate D2E/DX2                !
 ! R13   R(4,24)                 1.0964         estimate D2E/DX2                !
 ! R14   R(5,6)                  1.5388         estimate D2E/DX2                !
 ! R15   R(5,25)                 1.0947         estimate D2E/DX2                !
 ! R16   R(5,26)                 1.096          estimate D2E/DX2                !
 ! R17   R(6,7)                  1.5409         estimate D2E/DX2                !
 ! R18   R(6,12)                 1.4513         estimate D2E/DX2                !
 ! R19   R(6,27)                 1.0958         estimate D2E/DX2                !
 ! R20   R(7,8)                  1.4344         estimate D2E/DX2                !
 ! R21   R(7,28)                 1.0963         estimate D2E/DX2                !
 ! R22   R(7,29)                 1.0957         estimate D2E/DX2                !
 ! R23   R(8,9)                  1.3454         estimate D2E/DX2                !
 ! R24   R(9,10)                 1.2173         estimate D2E/DX2                !
 ! R25   R(9,11)                 1.3413         estimate D2E/DX2                !
 ! R26   R(11,30)                0.9764         estimate D2E/DX2                !
 ! R27   R(12,13)                1.3449         estimate D2E/DX2                !
 ! R28   R(13,14)                1.2159         estimate D2E/DX2                !
 ! R29   R(13,15)                1.3427         estimate D2E/DX2                !
 ! R30   R(15,31)                0.9772         estimate D2E/DX2                !
 ! A1    A(2,1,16)             111.5037         estimate D2E/DX2                !
 ! A2    A(2,1,17)             110.0254         estimate D2E/DX2                !
 ! A3    A(2,1,18)             111.0986         estimate D2E/DX2                !
 ! A4    A(16,1,17)            107.4903         estimate D2E/DX2                !
 ! A5    A(16,1,18)            108.5748         estimate D2E/DX2                !
 ! A6    A(17,1,18)            108.0129         estimate D2E/DX2                !
 ! A7    A(1,2,3)              113.5121         estimate D2E/DX2                !
 ! A8    A(1,2,19)             109.5673         estimate D2E/DX2                !
 ! A9    A(1,2,20)             108.5224         estimate D2E/DX2                !
 ! A10   A(3,2,19)             110.4505         estimate D2E/DX2                !
 ! A11   A(3,2,20)             108.2388         estimate D2E/DX2                !
 ! A12   A(19,2,20)            106.2662         estimate D2E/DX2                !
 ! A13   A(2,3,4)              115.5463         estimate D2E/DX2                !
 ! A14   A(2,3,21)             108.7315         estimate D2E/DX2                !
 ! A15   A(2,3,22)             108.4192         estimate D2E/DX2                !
 ! A16   A(4,3,21)             109.86           estimate D2E/DX2                !
 ! A17   A(4,3,22)             107.9915         estimate D2E/DX2                !
 ! A18   A(21,3,22)            105.8464         estimate D2E/DX2                !
 ! A19   A(3,4,5)              115.3319         estimate D2E/DX2                !
 ! A20   A(3,4,23)             108.1985         estimate D2E/DX2                !
 ! A21   A(3,4,24)             109.03           estimate D2E/DX2                !
 ! A22   A(5,4,23)             109.9076         estimate D2E/DX2                !
 ! A23   A(5,4,24)             108.4301         estimate D2E/DX2                !
 ! A24   A(23,4,24)            105.4916         estimate D2E/DX2                !
 ! A25   A(4,5,6)              114.4183         estimate D2E/DX2                !
 ! A26   A(4,5,25)             107.3828         estimate D2E/DX2                !
 ! A27   A(4,5,26)             110.196          estimate D2E/DX2                !
 ! A28   A(6,5,25)             109.9185         estimate D2E/DX2                !
 ! A29   A(6,5,26)             109.5099         estimate D2E/DX2                !
 ! A30   A(25,5,26)            104.9751         estimate D2E/DX2                !
 ! A31   A(5,6,7)              116.1905         estimate D2E/DX2                !
 ! A32   A(5,6,12)             112.9356         estimate D2E/DX2                !
 ! A33   A(5,6,27)             107.1399         estimate D2E/DX2                !
 ! A34   A(7,6,12)             110.288          estimate D2E/DX2                !
 ! A35   A(7,6,27)             106.0647         estimate D2E/DX2                !
 ! A36   A(12,6,27)            103.0707         estimate D2E/DX2                !
 ! A37   A(6,7,8)              113.1418         estimate D2E/DX2                !
 ! A38   A(6,7,28)             108.5087         estimate D2E/DX2                !
 ! A39   A(6,7,29)             111.4912         estimate D2E/DX2                !
 ! A40   A(8,7,28)             105.3352         estimate D2E/DX2                !
 ! A41   A(8,7,29)             111.4452         estimate D2E/DX2                !
 ! A42   A(28,7,29)            106.4612         estimate D2E/DX2                !
 ! A43   A(7,8,9)              116.5454         estimate D2E/DX2                !
 ! A44   A(8,9,10)             128.3685         estimate D2E/DX2                !
 ! A45   A(8,9,11)             109.5509         estimate D2E/DX2                !
 ! A46   A(10,9,11)            122.0786         estimate D2E/DX2                !
 ! A47   A(9,11,30)            103.5031         estimate D2E/DX2                !
 ! A48   A(6,12,13)            120.536          estimate D2E/DX2                !
 ! A49   A(12,13,14)           129.457          estimate D2E/DX2                !
 ! A50   A(12,13,15)           109.0569         estimate D2E/DX2                !
 ! A51   A(14,13,15)           121.4822         estimate D2E/DX2                !
 ! A52   A(13,15,31)           102.8881         estimate D2E/DX2                !
 ! D1    D(16,1,2,3)           -67.9348         estimate D2E/DX2                !
 ! D2    D(16,1,2,19)           56.0537         estimate D2E/DX2                !
 ! D3    D(16,1,2,20)          171.6859         estimate D2E/DX2                !
 ! D4    D(17,1,2,3)           172.8945         estimate D2E/DX2                !
 ! D5    D(17,1,2,19)          -63.1169         estimate D2E/DX2                !
 ! D6    D(17,1,2,20)           52.5152         estimate D2E/DX2                !
 ! D7    D(18,1,2,3)            53.3297         estimate D2E/DX2                !
 ! D8    D(18,1,2,19)          177.3182         estimate D2E/DX2                !
 ! D9    D(18,1,2,20)          -67.0496         estimate D2E/DX2                !
 ! D10   D(1,2,3,4)             57.1812         estimate D2E/DX2                !
 ! D11   D(1,2,3,21)          -178.7859         estimate D2E/DX2                !
 ! D12   D(1,2,3,22)           -64.1514         estimate D2E/DX2                !
 ! D13   D(19,2,3,4)           -66.3259         estimate D2E/DX2                !
 ! D14   D(19,2,3,21)           57.707          estimate D2E/DX2                !
 ! D15   D(19,2,3,22)          172.3415         estimate D2E/DX2                !
 ! D16   D(20,2,3,4)           177.7208         estimate D2E/DX2                !
 ! D17   D(20,2,3,21)          -58.2463         estimate D2E/DX2                !
 ! D18   D(20,2,3,22)           56.3882         estimate D2E/DX2                !
 ! D19   D(2,3,4,5)             60.4443         estimate D2E/DX2                !
 ! D20   D(2,3,4,23)          -176.0384         estimate D2E/DX2                !
 ! D21   D(2,3,4,24)           -61.7829         estimate D2E/DX2                !
 ! D22   D(21,3,4,5)           -62.997          estimate D2E/DX2                !
 ! D23   D(21,3,4,23)           60.5204         estimate D2E/DX2                !
 ! D24   D(21,3,4,24)          174.7759         estimate D2E/DX2                !
 ! D25   D(22,3,4,5)          -177.9931         estimate D2E/DX2                !
 ! D26   D(22,3,4,23)          -54.4758         estimate D2E/DX2                !
 ! D27   D(22,3,4,24)           59.7798         estimate D2E/DX2                !
 ! D28   D(3,4,5,6)             71.3127         estimate D2E/DX2                !
 ! D29   D(3,4,5,25)          -166.3988         estimate D2E/DX2                !
 ! D30   D(3,4,5,26)           -52.5918         estimate D2E/DX2                !
 ! D31   D(23,4,5,6)           -51.2979         estimate D2E/DX2                !
 ! D32   D(23,4,5,25)           70.9906         estimate D2E/DX2                !
 ! D33   D(23,4,5,26)         -175.2024         estimate D2E/DX2                !
 ! D34   D(24,4,5,6)          -166.1395         estimate D2E/DX2                !
 ! D35   D(24,4,5,25)          -43.851          estimate D2E/DX2                !
 ! D36   D(24,4,5,26)           69.9561         estimate D2E/DX2                !
 ! D37   D(4,5,6,7)             69.2709         estimate D2E/DX2                !
 ! D38   D(4,5,6,12)          -161.8476         estimate D2E/DX2                !
 ! D39   D(4,5,6,27)           -49.0498         estimate D2E/DX2                !
 ! D40   D(25,5,6,7)           -51.6258         estimate D2E/DX2                !
 ! D41   D(25,5,6,12)           77.2557         estimate D2E/DX2                !
 ! D42   D(25,5,6,27)         -169.9465         estimate D2E/DX2                !
 ! D43   D(26,5,6,7)          -166.4585         estimate D2E/DX2                !
 ! D44   D(26,5,6,12)          -37.5771         estimate D2E/DX2                !
 ! D45   D(26,5,6,27)           75.2208         estimate D2E/DX2                !
 ! D46   D(5,6,7,8)             66.72           estimate D2E/DX2                !
 ! D47   D(5,6,7,28)          -176.7688         estimate D2E/DX2                !
 ! D48   D(5,6,7,29)           -59.8351         estimate D2E/DX2                !
 ! D49   D(12,6,7,8)           -63.4333         estimate D2E/DX2                !
 ! D50   D(12,6,7,28)           53.078          estimate D2E/DX2                !
 ! D51   D(12,6,7,29)          170.0117         estimate D2E/DX2                !
 ! D52   D(27,6,7,8)          -174.3717         estimate D2E/DX2                !
 ! D53   D(27,6,7,28)          -57.8604         estimate D2E/DX2                !
 ! D54   D(27,6,7,29)           59.0733         estimate D2E/DX2                !
 ! D55   D(5,6,12,13)          -52.8503         estimate D2E/DX2                !
 ! D56   D(7,6,12,13)           79.0142         estimate D2E/DX2                !
 ! D57   D(27,6,12,13)        -168.1123         estimate D2E/DX2                !
 ! D58   D(6,7,8,9)            -97.7699         estimate D2E/DX2                !
 ! D59   D(28,7,8,9)           143.8592         estimate D2E/DX2                !
 ! D60   D(29,7,8,9)            28.8095         estimate D2E/DX2                !
 ! D61   D(7,8,9,10)             0.1797         estimate D2E/DX2                !
 ! D62   D(7,8,9,11)          -179.3098         estimate D2E/DX2                !
 ! D63   D(8,9,11,30)         -177.9733         estimate D2E/DX2                !
 ! D64   D(10,9,11,30)           2.4992         estimate D2E/DX2                !
 ! D65   D(6,12,13,14)           5.5005         estimate D2E/DX2                !
 ! D66   D(6,12,13,15)        -175.217          estimate D2E/DX2                !
 ! D67   D(12,13,15,31)        179.1307         estimate D2E/DX2                !
 ! D68   D(14,13,15,31)         -1.519          estimate D2E/DX2                !
 --------------------------------------------------------------------------------
 Trust Radius=3.00D-01 FncErr=1.00D-07 GrdErr=1.00D-06 EigMax=2.50D+02 EigMin=1.00D-04
 Number of steps in this run=    160 maximum allowed number of steps=    186.
 GradGradGradGradGradGradGradGradGradGradGradGradGradGradGradGradGradGrad

                          Input orientation:                          
 ---------------------------------------------------------------------
 Center     Atomic      Atomic             Coordinates (Angstroms)
 Number     Number       Type             X           Y           Z
 ---------------------------------------------------------------------
      1          6           0        1.038010   -0.091430    0.013990
      2          6           0        0.673310    0.189890   -1.436130
      3          6           0        1.119880   -0.910120   -2.402640
      4          6           0        0.587870   -2.314560   -2.096890
      5          6           0       -0.939470   -2.455700   -2.112920
      6          6           0       -1.571030   -2.375660   -3.513830
      7          6           0       -1.286440   -3.560600   -4.456840
      8          8           0       -1.884800   -4.787670   -4.016680
      9          6           0       -1.088910   -5.636230   -3.340860
     10          8           0        0.084350   -5.499510   -3.046640
     11          8           0       -1.782250   -6.736410   -3.012090
     12          8           0       -2.993870   -2.091990   -3.477400
     13          6           0       -3.821960   -2.845260   -2.731960
     14          8           0       -3.560680   -3.743650   -1.955470
     15          8           0       -5.087140   -2.450820   -2.947860
     16          1           0        0.471100   -0.937590    0.413150
     17          1           0        0.807940    0.780780    0.634420
     18          1           0        2.106010   -0.307710    0.116830
     19          1           0       -0.406400    0.355560   -1.517360
     20          1           0        1.151950    1.128930   -1.739950
     21          1           0        0.838860   -0.619120   -3.421080
     22          1           0        2.216570   -0.953990   -2.395300
     23          1           0        1.034400   -3.012770   -2.812690
     24          1           0        0.954760   -2.629440   -1.112850
     25          1           0       -1.184070   -3.416080   -1.647860
     26          1           0       -1.396010   -1.701380   -1.461960
     27          1           0       -1.154230   -1.489710   -4.005820
     28          1           0       -1.743380   -3.348100   -5.430400
     29          1           0       -0.212440   -3.680850   -4.637550
     30          1           0       -1.139470   -7.267670   -2.504120
     31          1           0       -5.604070   -3.057350   -2.382300
 ---------------------------------------------------------------------
                    Distance matrix (angstroms):
                    1          2          3          4          5
     1  C    0.000000
     2  C    1.521511   0.000000
     3  C    2.552853   1.530878   0.000000
     4  C    3.098507   2.591558   1.532635   0.000000
     5  C    3.744856   3.171474   2.591077   1.533931   0.000000
     6  C    4.946747   3.991985   3.259378   2.583080   1.538773
     7  C    6.117723   5.199181   4.127367   3.261137   2.614413
     8  O    6.844252   6.162732   5.164167   3.989482   3.155319
     9  C    6.820822   6.377859   5.300484   3.923333   3.412615
    10  O    6.286832   5.942212   4.748638   3.361468   3.344371
    11  O    7.827310   7.515787   6.537541   5.099786   4.454578
    12  O    5.696323   4.777234   4.413034   3.845024   2.492920
    13  C    6.224398   5.576627   5.317424   4.486820   2.973839
    14  O    6.193984   5.802510   5.489672   4.390076   2.924782
    15  O    7.201162   6.514711   6.418576   5.740074   4.230876
    16  H    1.093939   2.175301   2.889696   2.865307   3.267322
    17  H    1.094813   2.157418   3.490012   4.133959   4.590874
    18  H    1.094521   2.170696   2.771837   3.351530   4.342879
    19  H    2.152011   1.095362   2.171450   2.907571   2.922677
    20  H    2.139758   1.096904   2.144274   3.507594   4.166859
    21  H    3.481066   2.149868   1.095844   2.165870   2.871718
    22  H    2.817391   2.147119   1.097592   2.143097   3.506488
    23  H    4.065017   3.504616   2.143965   1.095105   2.167064
    24  H    2.778164   2.851727   2.155663   1.096400   2.149054
    25  H    4.330437   4.061737   3.486791   2.134185   1.094733
    26  H    3.270294   2.803508   2.800120   2.171383   1.095982
    27  H    4.787481   3.572711   2.842127   2.712804   2.135961
    28  H    6.927006   5.857641   4.827974   4.197049   3.528218
    29  H    6.007028   5.100615   3.800900   2.993693   2.898848
    30  H    7.910798   7.748676   6.747844   5.261448   4.831986
    31  H    7.658728   7.130589   7.058506   6.242861   4.710949
                    6          7          8          9         10
     6  C    0.000000
     7  C    1.540890   0.000000
     8  O    2.483768   1.434391   0.000000
     9  C    3.300557   2.364883   1.345447   0.000000
    10  O    3.566089   2.761721   2.307649   1.217291   0.000000
    11  O    4.394599   3.524046   2.194836   1.341345   2.239489
    12  O    1.451299   2.455898   2.964380   4.026059   4.612178
    13  C    2.428689   3.148934   3.029200   3.953459   4.733215
    14  O    2.873776   3.385635   2.854319   3.407464   4.190458
    15  O    3.562162   4.237210   4.105877   5.127098   6.004047
    16  H    4.653978   5.803958   6.324300   6.213167   5.738540
    17  H    5.729798   7.011058   7.738941   7.783245   7.315451
    18  H    5.565854   6.558084   7.285775   7.110292   6.406984
    19  H    3.577963   4.975070   5.906359   6.300200   6.071357
    20  H    4.779479   5.942973   7.029332   7.304229   6.839841
    21  H    2.983556   3.773858   5.014965   5.375326   4.952545
    22  H    4.197400   4.828607   5.843562   5.808929   5.062841
    23  H    2.772322   2.896488   3.622374   3.416131   2.672303
    24  H    3.494099   4.131865   4.599270   4.263965   3.568537
    25  H    2.171188   2.814558   2.825525   2.793630   2.811789
    26  H    2.166900   3.526756   4.036173   4.371226   4.373610
    27  H    1.095757   2.123555   3.377927   4.200008   4.304951
    28  H    2.156058   1.096252   2.022614   3.167025   3.694790
    29  H    2.193635   1.095715   2.099361   2.504619   2.434462
    30  H    5.013733   4.192503   2.998959   1.834199   2.217759
    31  H    4.243875   4.816524   4.415674   5.287356   6.226043
                   11         12         13         14         15
    11  O    0.000000
    12  O    4.822362   0.000000
    13  C    4.402265   1.344927   0.000000
    14  O    3.638114   2.316360   1.215857   0.000000
    15  O    5.412274   2.188824   1.342712   2.233009   0.000000
    16  H    7.101843   5.336200   5.653431   5.453401   6.669354
    17  H    8.747243   6.293936   6.776183   6.801679   7.617607
    18  H    8.138605   6.489293   7.049510   6.943449   8.107198
    19  H    7.377209   4.065373   4.835964   5.190852   5.641935
    20  H    8.490668   5.529998   6.443450   6.782136   7.293826
    21  H    6.667738   4.106378   5.210934   5.591659   6.220654
    22  H    7.057434   5.441936   6.336725   6.430573   7.475962
    23  H    4.673197   4.185288   4.859919   4.731149   6.148765
    24  H    5.288245   4.633749   5.048282   4.726592   6.316939
    25  H    3.639167   2.894099   2.908534   2.418719   4.225598
    26  H    5.282387   2.601486   2.967591   3.016656   4.048950
    27  H    5.376781   2.006550   3.252233   3.882677   4.184590
    28  H    4.162977   2.637375   3.443098   3.941342   4.260146
    29  H    3.800378   3.406872   4.166308   4.290479   5.303841
    30  H    0.976441   5.583345   5.177391   4.310683   6.243641
    31  H    5.342137   2.990704   1.828431   2.197415   0.977217
                   16         17         18         19         20
    16  H    0.000000
    17  H    1.764998   0.000000
    18  H    1.776931   1.771354   0.000000
    19  H    2.483770   2.507108   3.069643   0.000000
    20  H    3.061029   2.424290   2.534126   1.753882   0.000000
    21  H    3.864970   4.290426   3.770869   2.474838   2.445384
    22  H    3.306709   3.764687   2.596286   3.060338   2.429291
    23  H    3.876819   5.130777   4.128896   3.885799   4.279985
    24  H    2.329154   3.834594   2.868435   3.305542   3.815427
    25  H    3.623570   5.175958   4.858057   3.853189   5.111026
    26  H    2.754181   3.925981   4.086446   2.283287   3.818381
    27  H    4.740657   5.526035   5.387256   3.186958   4.160518
    28  H    6.697877   7.767813   7.404967   5.551261   6.484301
    29  H    5.788115   6.981474   6.273549   5.105469   5.778549
    30  H    7.153622   8.855529   8.114405   7.721705   8.737131
    31  H    7.015384   8.058890   8.558709   6.277886   7.973792
                   21         22         23         24         25
    21  H    0.000000
    22  H    1.749985   0.000000
    23  H    2.477486   2.410460   0.000000
    24  H    3.063127   2.458450   1.744345   0.000000
    25  H    3.880662   4.264376   2.537932   2.340861   0.000000
    26  H    3.162923   3.805319   3.074265   2.551332   1.737721
    27  H    2.252167   3.773998   2.921194   3.757140   3.044958
    28  H    4.260594   5.533968   3.831568   5.141757   3.824272
    29  H    3.458211   4.285270   2.308908   3.858928   3.154745
    30  H    6.996987   7.151042   4.788016   5.275851   3.945873
    31  H    6.966734   8.098562   6.652556   6.694241   4.494940
                   26         27         28         29         30
    26  H    0.000000
    27  H    2.564076   0.000000
    28  H    4.310553   2.414568   0.000000
    29  H    3.924731   2.467214   1.755879   0.000000
    30  H    5.668818   5.969937   4.928575   4.275066   0.000000
    31  H    4.515911   4.989428   4.927512   5.877464   6.137938
                   31
    31  H    0.000000
 Stoichiometry    C9H16O6
 Framework group  C1[X(C9H16O6)]
 Deg. of freedom    87
 Full point group                 C1      NOp   1
 Largest Abelian subgroup         C1      NOp   1
 Largest concise Abelian subgroup C1      NOp   1
                         Standard orientation:                         
 ---------------------------------------------------------------------
 Center     Atomic      Atomic             Coordinates (Angstroms)
 Number     Number       Type             X           Y           Z
 ---------------------------------------------------------------------
      1          6           0       -4.430133    0.039537   -1.234078
      2          6           0       -3.927778    0.398259    0.156588
      3          6           0       -3.048550   -0.685072    0.786621
      4          6           0       -1.808884   -1.083161   -0.021910
      5          6           0       -0.807068    0.047824   -0.286830
      6          6           0       -0.017510    0.501730    0.953489
      7          6           0        1.010819   -0.501908    1.509898
      8          8           0        2.112745   -0.731311    0.620736
      9          6           0        2.040799   -1.827901   -0.155501
     10          8           0        1.153935   -2.660119   -0.207292
     11          8           0        3.142974   -1.913190   -0.915199
     12          8           0        0.592703    1.808146    0.788605
     13          6           0        1.375760    2.067429   -0.273668
     14          8           0        1.618420    1.373841   -1.242358
     15          8           0        1.898691    3.297212   -0.143076
     16          1           0       -3.612838    0.010916   -1.960654
     17          1           0       -5.149813    0.789578   -1.577757
     18          1           0       -4.930249   -0.934044   -1.233354
     19          1           0       -3.390974    1.352286    0.117955
     20          1           0       -4.794464    0.559590    0.809295
     21          1           0       -2.749942   -0.357221    1.788729
     22          1           0       -3.659614   -1.584636    0.935266
     23          1           0       -1.311086   -1.907817    0.499046
     24          1           0       -2.128325   -1.496151   -0.986010
     25          1           0       -0.116616   -0.301578   -1.061190
     26          1           0       -1.318115    0.909638   -0.730997
     27          1           0       -0.744602    0.667385    1.756347
     28          1           0        1.454627   -0.077912    2.418211
     29          1           0        0.533570   -1.442313    1.807329
     30          1           0        2.984458   -2.708960   -1.458393
     31          1           0        2.453509    3.384196   -0.942803
 ---------------------------------------------------------------------
 Rotational constants (GHZ):           0.6803013           0.3840582           0.2881739
 Standard basis: 6-31G(d) (6D, 7F)
 There are   257 symmetry adapted cartesian basis functions of A   symmetry.
 There are   257 symmetry adapted basis functions of A   symmetry.
   257 basis functions,   484 primitive gaussians,   257 cartesian basis functions
    59 alpha electrons       59 beta electrons
       nuclear repulsion energy      1103.5887851203 Hartrees.
 NAtoms=   31 NActive=   31 NUniq=   31 SFac= 1.00D+00 NAtFMM=   60 NAOKFM=F Big=F
 Integral buffers will be    131072 words long.
 Raffenetti 2 integral format.
 Two-electron integral symmetry is turned on.
 Nuclear repulsion after empirical dispersion term =     1103.5368586778 Hartrees.
 One-electron integrals computed using PRISM.
 NBasis=   257 RedAO= T EigKep=  3.12D-03  NBF=   257
 NBsUse=   257 1.00D-06 EigRej= -1.00D+00 NBFU=   257
 ExpMin= 1.61D-01 ExpMax= 5.48D+03 ExpMxC= 8.25D+02 IAcc=3 IRadAn=         5 AccDes= 0.00D+00
 Harris functional with IExCor=  402 and IRadAn=       5 diagonalized for initial guess.
 HarFok:  IExCor=  402 AccDes= 0.00D+00 IRadAn=         5 IDoV= 1 UseB2=F ITyADJ=14
 ICtDFT=  3500011 ScaDFX=  1.000000  1.000000  1.000000  1.000000
 FoFCou: FMM=F IPFlag=           0 FMFlag=      100000 FMFlg1=           0
         NFxFlg=           0 DoJE=T BraDBF=F KetDBF=T FulRan=T
         wScrn=  0.000000 ICntrl=       500 IOpCl=  0 I1Cent=   200000004 NGrid=           0
         NMat0=    1 NMatS0=      1 NMatT0=    0 NMatD0=    1 NMtDS0=    0 NMtDT0=    0
 Petite list used in FoFCou.
 Keep R1 ints in memory in canonical form, NReq=558165769.
 Requested convergence on RMS density matrix=1.00D-08 within  32 cycles.
 Requested convergence on MAX density matrix=1.00D-06.
 Requested convergence on             energy=1.00D-06.
 No special actions if energy rises.
 Integral accuracy reduced to 1.0D-05 until final iterations.
 Initial convergence to 1.0D-05 achieved.  Increase integral accuracy.
 SCF Done:  E(RB3LYP) =  -804.015774529     A.U. after   13 cycles
            NFock= 13  Conv=0.69D-08     -V/T= 2.0091
 QCSCF skips out because SCF is already converged.

 **********************************************************************

            Population analysis using the SCF density.

 **********************************************************************

 Orbital symmetries:
       Occupied  (A) (A) (A) (A) (A) (A) (A) (A) (A) (A) (A) (A)
                 (A) (A) (A) (A) (A) (A) (A) (A) (A) (A) (A) (A)
                 (A) (A) (A) (A) (A) (A) (A) (A) (A) (A) (A) (A)
                 (A) (A) (A) (A) (A) (A) (A) (A) (A) (A) (A) (A)
                 (A) (A) (A) (A) (A) (A) (A) (A) (A) (A) (A)
       Virtual   (A) (A) (A) (A) (A) (A) (A) (A) (A) (A) (A) (A)
                 (A) (A) (A) (A) (A) (A) (A) (A) (A) (A) (A) (A)
                 (A) (A) (A) (A) (A) (A) (A) (A) (A) (A) (A) (A)
                 (A) (A) (A) (A) (A) (A) (A) (A) (A) (A) (A) (A)
                 (A) (A) (A) (A) (A) (A) (A) (A) (A) (A) (A) (A)
                 (A) (A) (A) (A) (A) (A) (A) (A) (A) (A) (A) (A)
                 (A) (A) (A) (A) (A) (A) (A) (A) (A) (A) (A) (A)
                 (A) (A) (A) (A) (A) (A) (A) (A) (A) (A) (A) (A)
                 (A) (A) (A) (A) (A) (A) (A) (A) (A) (A) (A) (A)
                 (A) (A) (A) (A) (A) (A) (A) (A) (A) (A) (A) (A)
                 (A) (A) (A) (A) (A) (A) (A) (A) (A) (A) (A) (A)
                 (A) (A) (A) (A) (A) (A) (A) (A) (A) (A) (A) (A)
                 (A) (A) (A) (A) (A) (A) (A) (A) (A) (A) (A) (A)
                 (A) (A) (A) (A) (A) (A) (A) (A) (A) (A) (A) (A)
                 (A) (A) (A) (A) (A) (A) (A) (A) (A) (A) (A) (A)
                 (A) (A) (A) (A) (A) (A) (A) (A) (A) (A) (A) (A)
                 (A) (A) (A) (A) (A) (A)
 The electronic state is 1-A.
 Alpha  occ. eigenvalues --  -19.20849 -19.20346 -19.20249 -19.19956 -19.14183
 Alpha  occ. eigenvalues --  -19.13336 -10.37027 -10.36543 -10.26731 -10.26116
 Alpha  occ. eigenvalues --  -10.18438 -10.17872 -10.17844 -10.17834 -10.17149
 Alpha  occ. eigenvalues --   -1.14814  -1.14123  -1.06679  -1.05577  -1.01888
 Alpha  occ. eigenvalues --   -1.01262  -0.82098  -0.79087  -0.74594  -0.71162
 Alpha  occ. eigenvalues --   -0.67735  -0.63368  -0.62231  -0.58178  -0.55549
 Alpha  occ. eigenvalues --   -0.55195  -0.52928  -0.50082  -0.49501  -0.49012
 Alpha  occ. eigenvalues --   -0.48088  -0.46913  -0.46336  -0.45747  -0.44374
 Alpha  occ. eigenvalues --   -0.43346  -0.42800  -0.41288  -0.40257  -0.39958
 Alpha  occ. eigenvalues --   -0.38563  -0.36961  -0.36390  -0.35249  -0.35143
 Alpha  occ. eigenvalues --   -0.34258  -0.32646  -0.31869  -0.31753  -0.31641
 Alpha  occ. eigenvalues --   -0.31311  -0.29391  -0.29150  -0.27589
 Alpha virt. eigenvalues --    0.03225   0.04028   0.06021   0.06690   0.07627
 Alpha virt. eigenvalues --    0.09850   0.11080   0.11681   0.12247   0.13851
 Alpha virt. eigenvalues --    0.14067   0.14958   0.15614   0.16712   0.17639
 Alpha virt. eigenvalues --    0.19077   0.19684   0.20412   0.21017   0.21577
 Alpha virt. eigenvalues --    0.22829   0.23526   0.24193   0.24985   0.25183
 Alpha virt. eigenvalues --    0.26364   0.26794   0.31851   0.32131   0.33332
 Alpha virt. eigenvalues --    0.38575   0.40924   0.47866   0.48826   0.50172
 Alpha virt. eigenvalues --    0.50563   0.51224   0.52661   0.53668   0.55580
 Alpha virt. eigenvalues --    0.56340   0.56974   0.57856   0.59245   0.60975
 Alpha virt. eigenvalues --    0.62262   0.62727   0.64989   0.65342   0.66335
 Alpha virt. eigenvalues --    0.67578   0.69528   0.70844   0.72307   0.74131
 Alpha virt. eigenvalues --    0.76550   0.76756   0.77007   0.77497   0.80784
 Alpha virt. eigenvalues --    0.83473   0.84608   0.85067   0.85957   0.87260
 Alpha virt. eigenvalues --    0.88208   0.88568   0.89971   0.90692   0.90948
 Alpha virt. eigenvalues --    0.91309   0.92013   0.93046   0.93956   0.94382
 Alpha virt. eigenvalues --    0.95460   0.95731   0.97120   0.97644   0.99241
 Alpha virt. eigenvalues --    0.99656   1.00611   1.01976   1.03402   1.05546
 Alpha virt. eigenvalues --    1.06162   1.07804   1.09509   1.11256   1.12944
 Alpha virt. eigenvalues --    1.15567   1.16949   1.18003   1.19204   1.23022
 Alpha virt. eigenvalues --    1.29466   1.31341   1.32029   1.35756   1.38127
 Alpha virt. eigenvalues --    1.41482   1.43006   1.43359   1.44653   1.48538
 Alpha virt. eigenvalues --    1.51031   1.52629   1.54779   1.55420   1.57865
 Alpha virt. eigenvalues --    1.60813   1.62366   1.63518   1.66927   1.68749
 Alpha virt. eigenvalues --    1.69761   1.71699   1.71902   1.72646   1.73584
 Alpha virt. eigenvalues --    1.76134   1.78328   1.79720   1.80618   1.82456
 Alpha virt. eigenvalues --    1.83531   1.84280   1.84816   1.87450   1.89042
 Alpha virt. eigenvalues --    1.91216   1.92131   1.94565   1.95573   1.96918
 Alpha virt. eigenvalues --    1.98723   2.00168   2.02076   2.02710   2.06267
 Alpha virt. eigenvalues --    2.07194   2.07822   2.09617   2.10220   2.12655
 Alpha virt. eigenvalues --    2.13112   2.14869   2.16393   2.22206   2.25244
 Alpha virt. eigenvalues --    2.28011   2.28229   2.31764   2.33690   2.36487
 Alpha virt. eigenvalues --    2.39574   2.41432   2.45011   2.45654   2.46821
 Alpha virt. eigenvalues --    2.48288   2.50232   2.51811   2.56378   2.60171
 Alpha virt. eigenvalues --    2.63007   2.66473   2.67277   2.69174   2.71347
 Alpha virt. eigenvalues --    2.72950   2.73153   2.73898   2.75407   2.77749
 Alpha virt. eigenvalues --    2.79523   2.82074   2.94916   2.97007   3.10304
 Alpha virt. eigenvalues --    3.13756   3.14534   3.16232   3.83742   3.85461
 Alpha virt. eigenvalues --    4.05621   4.11554   4.13873   4.15634   4.24676
 Alpha virt. eigenvalues --    4.27380   4.31523   4.31888   4.38779   4.45279
 Alpha virt. eigenvalues --    4.51472   4.55225   4.63135
          Condensed to atoms (all electrons):
               1          2          3          4          5          6
     1  C    5.065890   0.379625  -0.050399  -0.003847  -0.001938   0.000084
     2  C    0.379625   4.966544   0.380564  -0.045630  -0.003706  -0.000835
     3  C   -0.050399   0.380564   5.032215   0.359997  -0.044721  -0.003852
     4  C   -0.003847  -0.045630   0.359997   5.063673   0.342414  -0.030821
     5  C   -0.001938  -0.003706  -0.044721   0.342414   5.109829   0.362053
     6  C    0.000084  -0.000835  -0.003852  -0.030821   0.362053   4.858896
     7  C   -0.000001   0.000028  -0.000380  -0.001208  -0.037326   0.329210
     8  O    0.000000   0.000000  -0.000004  -0.000136  -0.001435  -0.041844
     9  C    0.000000  -0.000000   0.000015  -0.000253   0.002701  -0.003399
    10  O   -0.000000  -0.000000   0.000098  -0.001692  -0.000828  -0.001986
    11  O    0.000000  -0.000000   0.000000   0.000001  -0.000038  -0.000087
    12  O    0.000000  -0.000007   0.000031   0.002043  -0.036173   0.199192
    13  C   -0.000000  -0.000002  -0.000010   0.000315  -0.004973  -0.021254
    14  O    0.000000   0.000000  -0.000005   0.000367  -0.001583   0.002677
    15  O   -0.000000   0.000000  -0.000000   0.000001  -0.000211   0.002563
    16  H    0.379439  -0.034482  -0.005539   0.002753   0.000519   0.000004
    17  H    0.373990  -0.030342   0.004864   0.000159   0.000000  -0.000000
    18  H    0.378563  -0.037688  -0.004010  -0.001168   0.000134  -0.000002
    19  H   -0.041275   0.376985  -0.038475  -0.006909   0.003012   0.000193
    20  H   -0.040871   0.376915  -0.034566   0.005007   0.000080  -0.000002
    21  H    0.005618  -0.038616   0.368535  -0.041481  -0.006730   0.001113
    22  H   -0.006016  -0.039281   0.370995  -0.035959   0.005139   0.000101
    23  H    0.000012   0.005105  -0.035816   0.372020  -0.038791  -0.008336
    24  H    0.005442  -0.008549  -0.039760   0.375332  -0.031908   0.004036
    25  H   -0.000012   0.000036   0.004836  -0.032454   0.367812  -0.029236
    26  H    0.000190   0.004454  -0.008951  -0.034474   0.366600  -0.037171
    27  H    0.000008   0.000115   0.004917  -0.006093  -0.049904   0.375044
    28  H    0.000000   0.000000  -0.000009  -0.000032   0.004952  -0.040662
    29  H    0.000000   0.000001   0.000003   0.000826  -0.003897  -0.031140
    30  H    0.000000   0.000000  -0.000000  -0.000000  -0.000002   0.000017
    31  H   -0.000000  -0.000000   0.000000  -0.000000   0.000023  -0.000251
               7          8          9         10         11         12
     1  C   -0.000001   0.000000   0.000000  -0.000000   0.000000   0.000000
     2  C    0.000028   0.000000  -0.000000  -0.000000  -0.000000  -0.000007
     3  C   -0.000380  -0.000004   0.000015   0.000098   0.000000   0.000031
     4  C   -0.001208  -0.000136  -0.000253  -0.001692   0.000001   0.002043
     5  C   -0.037326  -0.001435   0.002701  -0.000828  -0.000038  -0.036173
     6  C    0.329210  -0.041844  -0.003399  -0.001986  -0.000087   0.199192
     7  C    4.963495   0.219134  -0.024404  -0.001497   0.002799  -0.037521
     8  O    0.219134   8.164197   0.290934  -0.067906  -0.077565   0.000236
     9  C   -0.024404   0.290934   4.117885   0.525542   0.328960  -0.000154
    10  O   -0.001497  -0.067906   0.525542   8.094267  -0.087164   0.000001
    11  O    0.002799  -0.077565   0.328960  -0.087164   8.153294   0.000002
    12  O   -0.037521   0.000236  -0.000154   0.000001   0.000002   8.216264
    13  C   -0.008994   0.005107   0.000238   0.000005   0.000025   0.302756
    14  O   -0.000738  -0.004112   0.004199  -0.000015  -0.000210  -0.065588
    15  O   -0.000157  -0.000087   0.000005  -0.000000  -0.000000  -0.081590
    16  H    0.000000  -0.000000  -0.000000   0.000000   0.000000  -0.000000
    17  H   -0.000000  -0.000000  -0.000000  -0.000000  -0.000000  -0.000000
    18  H    0.000000  -0.000000  -0.000000   0.000000  -0.000000   0.000000
    19  H    0.000003   0.000000  -0.000000  -0.000000   0.000000  -0.000002
    20  H    0.000000  -0.000000   0.000000   0.000000   0.000000   0.000000
    21  H    0.000030  -0.000001   0.000002   0.000001   0.000000  -0.000039
    22  H   -0.000002   0.000000  -0.000000  -0.000000   0.000000   0.000000
    23  H    0.001965  -0.000143  -0.000204   0.008022   0.000020   0.000011
    24  H   -0.000000  -0.000005   0.000002  -0.000015  -0.000000  -0.000048
    25  H   -0.009881   0.001429   0.004684   0.002140  -0.000312  -0.000811
    26  H    0.005281  -0.000035  -0.000052   0.000078  -0.000000   0.000494
    27  H   -0.045999   0.002775   0.000108  -0.000054   0.000001  -0.035902
    28  H    0.373136  -0.036792   0.004058   0.000319  -0.000057  -0.000075
    29  H    0.344577  -0.026958  -0.007150   0.013100   0.000161   0.002772
    30  H   -0.000274   0.005479  -0.013720   0.009934   0.234967   0.000000
    31  H    0.000018   0.000004  -0.000002   0.000000   0.000000   0.005719
              13         14         15         16         17         18
     1  C   -0.000000   0.000000  -0.000000   0.379439   0.373990   0.378563
     2  C   -0.000002   0.000000   0.000000  -0.034482  -0.030342  -0.037688
     3  C   -0.000010  -0.000005  -0.000000  -0.005539   0.004864  -0.004010
     4  C    0.000315   0.000367   0.000001   0.002753   0.000159  -0.001168
     5  C   -0.004973  -0.001583  -0.000211   0.000519   0.000000   0.000134
     6  C   -0.021254   0.002677   0.002563   0.000004  -0.000000  -0.000002
     7  C   -0.008994  -0.000738  -0.000157   0.000000  -0.000000   0.000000
     8  O    0.005107  -0.004112  -0.000087  -0.000000  -0.000000  -0.000000
     9  C    0.000238   0.004199   0.000005  -0.000000  -0.000000  -0.000000
    10  O    0.000005  -0.000015  -0.000000   0.000000  -0.000000   0.000000
    11  O    0.000025  -0.000210  -0.000000   0.000000  -0.000000  -0.000000
    12  O    0.302756  -0.065588  -0.081590  -0.000000  -0.000000   0.000000
    13  C    4.116691   0.521456   0.328894  -0.000000   0.000000   0.000000
    14  O    0.521456   8.098168  -0.088390  -0.000000  -0.000000   0.000000
    15  O    0.328894  -0.088390   8.166413   0.000000   0.000000   0.000000
    16  H   -0.000000  -0.000000   0.000000   0.569905  -0.030811  -0.032107
    17  H    0.000000  -0.000000   0.000000  -0.030811   0.576655  -0.030604
    18  H    0.000000   0.000000   0.000000  -0.032107  -0.030604   0.576199
    19  H    0.000001  -0.000000   0.000000  -0.005834  -0.001937   0.005570
    20  H    0.000000  -0.000000   0.000000   0.005448  -0.004518  -0.003676
    21  H   -0.000002  -0.000000  -0.000000  -0.000053  -0.000177   0.000017
    22  H    0.000000   0.000000   0.000000  -0.000227  -0.000047   0.005469
    23  H    0.000008  -0.000000  -0.000000  -0.000014  -0.000002  -0.000046
    24  H   -0.000009   0.000002  -0.000000   0.001315  -0.000104   0.000603
    25  H    0.001313   0.007833   0.000076  -0.000049   0.000001   0.000000
    26  H    0.000929  -0.000103  -0.000087   0.001111  -0.000044  -0.000011
    27  H    0.003634  -0.000071  -0.000082  -0.000003  -0.000000   0.000000
    28  H   -0.000202   0.000056  -0.000026  -0.000000   0.000000  -0.000000
    29  H    0.000226  -0.000072   0.000000   0.000000  -0.000000  -0.000000
    30  H   -0.000001   0.000009   0.000000  -0.000000  -0.000000  -0.000000
    31  H   -0.013896   0.011265   0.234043  -0.000000   0.000000  -0.000000
              19         20         21         22         23         24
     1  C   -0.041275  -0.040871   0.005618  -0.006016   0.000012   0.005442
     2  C    0.376985   0.376915  -0.038616  -0.039281   0.005105  -0.008549
     3  C   -0.038475  -0.034566   0.368535   0.370995  -0.035816  -0.039760
     4  C   -0.006909   0.005007  -0.041481  -0.035959   0.372020   0.375332
     5  C    0.003012   0.000080  -0.006730   0.005139  -0.038791  -0.031908
     6  C    0.000193  -0.000002   0.001113   0.000101  -0.008336   0.004036
     7  C    0.000003   0.000000   0.000030  -0.000002   0.001965  -0.000000
     8  O    0.000000  -0.000000  -0.000001   0.000000  -0.000143  -0.000005
     9  C   -0.000000   0.000000   0.000002  -0.000000  -0.000204   0.000002
    10  O   -0.000000   0.000000   0.000001  -0.000000   0.008022  -0.000015
    11  O    0.000000   0.000000   0.000000   0.000000   0.000020  -0.000000
    12  O   -0.000002   0.000000  -0.000039   0.000000   0.000011  -0.000048
    13  C    0.000001   0.000000  -0.000002   0.000000   0.000008  -0.000009
    14  O   -0.000000  -0.000000  -0.000000   0.000000  -0.000000   0.000002
    15  O    0.000000   0.000000  -0.000000   0.000000  -0.000000  -0.000000
    16  H   -0.005834   0.005448  -0.000053  -0.000227  -0.000014   0.001315
    17  H   -0.001937  -0.004518  -0.000177  -0.000047  -0.000002  -0.000104
    18  H    0.005570  -0.003676   0.000017   0.005469  -0.000046   0.000603
    19  H    0.607154  -0.037795  -0.003906   0.005926  -0.000042   0.000003
    20  H   -0.037795   0.609406  -0.002728  -0.004818  -0.000138   0.000006
    21  H   -0.003906  -0.002728   0.625285  -0.036351  -0.003327   0.005746
    22  H    0.005926  -0.004818  -0.036351   0.610068  -0.003410  -0.003509
    23  H   -0.000042  -0.000138  -0.003327  -0.003410   0.571849  -0.032466
    24  H    0.000003   0.000006   0.005746  -0.003509  -0.032466   0.585518
    25  H   -0.000059  -0.000000  -0.000055  -0.000140  -0.002161  -0.005072
    26  H    0.002939  -0.000101  -0.000019   0.000057   0.005249  -0.002167
    27  H    0.000139  -0.000024   0.005079  -0.000217  -0.000310   0.000030
    28  H    0.000000  -0.000000  -0.000013   0.000000  -0.000043   0.000002
    29  H   -0.000001   0.000000   0.000203  -0.000013   0.003656  -0.000028
    30  H   -0.000000  -0.000000  -0.000000  -0.000000  -0.000003   0.000000
    31  H   -0.000000  -0.000000   0.000000  -0.000000   0.000000   0.000000
              25         26         27         28         29         30
     1  C   -0.000012   0.000190   0.000008   0.000000   0.000000   0.000000
     2  C    0.000036   0.004454   0.000115   0.000000   0.000001   0.000000
     3  C    0.004836  -0.008951   0.004917  -0.000009   0.000003  -0.000000
     4  C   -0.032454  -0.034474  -0.006093  -0.000032   0.000826  -0.000000
     5  C    0.367812   0.366600  -0.049904   0.004952  -0.003897  -0.000002
     6  C   -0.029236  -0.037171   0.375044  -0.040662  -0.031140   0.000017
     7  C   -0.009881   0.005281  -0.045999   0.373136   0.344577  -0.000274
     8  O    0.001429  -0.000035   0.002775  -0.036792  -0.026958   0.005479
     9  C    0.004684  -0.000052   0.000108   0.004058  -0.007150  -0.013720
    10  O    0.002140   0.000078  -0.000054   0.000319   0.013100   0.009934
    11  O   -0.000312  -0.000000   0.000001  -0.000057   0.000161   0.234967
    12  O   -0.000811   0.000494  -0.035902  -0.000075   0.002772   0.000000
    13  C    0.001313   0.000929   0.003634  -0.000202   0.000226  -0.000001
    14  O    0.007833  -0.000103  -0.000071   0.000056  -0.000072   0.000009
    15  O    0.000076  -0.000087  -0.000082  -0.000026   0.000000   0.000000
    16  H   -0.000049   0.001111  -0.000003  -0.000000   0.000000  -0.000000
    17  H    0.000001  -0.000044  -0.000000   0.000000  -0.000000  -0.000000
    18  H    0.000000  -0.000011   0.000000  -0.000000  -0.000000  -0.000000
    19  H   -0.000059   0.002939   0.000139   0.000000  -0.000001  -0.000000
    20  H   -0.000000  -0.000101  -0.000024  -0.000000   0.000000  -0.000000
    21  H   -0.000055  -0.000019   0.005079  -0.000013   0.000203  -0.000000
    22  H   -0.000140   0.000057  -0.000217   0.000000  -0.000013  -0.000000
    23  H   -0.002161   0.005249  -0.000310  -0.000043   0.003656  -0.000003
    24  H   -0.005072  -0.002167   0.000030   0.000002  -0.000028   0.000000
    25  H    0.534036  -0.033878   0.005263   0.000044   0.000056   0.000014
    26  H   -0.033878   0.583336  -0.003938  -0.000129  -0.000035  -0.000000
    27  H    0.005263  -0.003938   0.585521  -0.001765   0.001936  -0.000000
    28  H    0.000044  -0.000129  -0.001765   0.557798  -0.032838   0.000005
    29  H    0.000056  -0.000035   0.001936  -0.032838   0.551546  -0.000013
    30  H    0.000014  -0.000000  -0.000000   0.000005  -0.000013   0.339123
    31  H    0.000002   0.000004   0.000007   0.000001  -0.000000  -0.000000
              31
     1  C   -0.000000
     2  C   -0.000000
     3  C    0.000000
     4  C   -0.000000
     5  C    0.000023
     6  C   -0.000251
     7  C    0.000018
     8  O    0.000004
     9  C   -0.000002
    10  O    0.000000
    11  O    0.000000
    12  O    0.005719
    13  C   -0.013896
    14  O    0.011265
    15  O    0.234043
    16  H   -0.000000
    17  H    0.000000
    18  H   -0.000000
    19  H   -0.000000
    20  H   -0.000000
    21  H    0.000000
    22  H   -0.000000
    23  H    0.000000
    24  H    0.000000
    25  H    0.000002
    26  H    0.000004
    27  H    0.000007
    28  H    0.000001
    29  H   -0.000000
    30  H   -0.000000
    31  H    0.340170
 Mulliken charges:
               1
     1  C   -0.444501
     2  C   -0.251235
     3  C   -0.260572
     4  C   -0.282749
     5  C   -0.301100
     6  C    0.115692
     7  C   -0.071295
     8  O   -0.432273
     9  C    0.770003
    10  O   -0.492349
    11  O   -0.554796
    12  O   -0.471612
    13  C    0.767746
    14  O   -0.485146
    15  O   -0.561365
    16  H    0.148626
    17  H    0.142917
    18  H    0.142756
    19  H    0.134312
    20  H    0.132374
    21  H    0.121870
    22  H    0.132235
    23  H    0.157335
    24  H    0.145606
    25  H    0.184546
    26  H    0.150474
    27  H    0.159786
    28  H    0.172274
    29  H    0.183083
    30  H    0.424465
    31  H    0.422892
 Sum of Mulliken charges =   0.00000
 Mulliken charges with hydrogens summed into heavy atoms:
               1
     1  C   -0.010201
     2  C    0.015450
     3  C   -0.006467
     4  C    0.020192
     5  C    0.033920
     6  C    0.275479
     7  C    0.284061
     8  O   -0.432273
     9  C    0.770003
    10  O   -0.492349
    11  O   -0.130331
    12  O   -0.471612
    13  C    0.767746
    14  O   -0.485146
    15  O   -0.138472
 Electronic spatial extent (au):  <R**2>=           3975.1665
 Charge=              0.0000 electrons
 Dipole moment (field-independent basis, Debye):
    X=             -0.5637    Y=             -0.2950    Z=              0.4801  Tot=              0.7970
 Quadrupole moment (field-independent basis, Debye-Ang):
   XX=            -86.3249   YY=            -88.7190   ZZ=            -84.2990
   XY=             -1.2113   XZ=             -2.8221   YZ=             -1.8727
 Traceless Quadrupole moment (field-independent basis, Debye-Ang):
   XX=              0.1227   YY=             -2.2714   ZZ=              2.1486
   XY=             -1.2113   XZ=             -2.8221   YZ=             -1.8727
 Octapole moment (field-independent basis, Debye-Ang**2):
  XXX=             42.8887  YYY=              8.1511  ZZZ=              1.0667  XYY=             43.8832
  XXY=              1.0436  XXZ=            -12.1177  XZZ=             24.4070  YZZ=             -7.7801
  YYZ=            -32.2612  XYZ=              0.6667
 Hexadecapole moment (field-independent basis, Debye-Ang**3):
 XXXX=          -3116.4156 YYYY=          -1378.7730 ZZZZ=           -471.5634 XXXY=             13.8620
 XXXZ=            -59.4622 YYYX=             -8.4567 YYYZ=            -34.6924 ZZZX=            -25.8812
 ZZZY=             17.5202 XXYY=           -623.7716 XXZZ=           -584.2286 YYZZ=           -272.6820
 XXYZ=              5.1638 YYXZ=            -88.1061 ZZXY=            -22.8759
 N-N= 1.103536858678D+03 E-N=-4.087234908027D+03  KE= 7.967716155897D+02
 Calling FoFJK, ICntrl=      2127 FMM=F ISym2X=0 I1Cent= 0 IOpClX= 0 NMat=1 NMatS=1 NMatT=0.
 ***** Axes restored to original set *****
 -------------------------------------------------------------------
 Center     Atomic                   Forces (Hartrees/Bohr)
 Number     Number              X              Y              Z
 -------------------------------------------------------------------
      1        6          -0.002639453    0.002241256    0.003400999
      2        6           0.001943988    0.001433024   -0.002482951
      3        6           0.000879763    0.000631468   -0.000913743
      4        6           0.002513672    0.003178865   -0.004222024
      5        6          -0.000011848   -0.012614335    0.006242981
      6        6           0.008087048   -0.003621404    0.007829918
      7        6          -0.002472480    0.008505494   -0.004518367
      8        8           0.009532529   -0.007064824    0.001900683
      9        6           0.004262802   -0.000142971    0.003679614
     10        8          -0.004816026    0.008514656   -0.005935183
     11        8          -0.003051073    0.000209116   -0.000516733
     12        8          -0.005669147   -0.002821873   -0.000078081
     13        6           0.005620531   -0.008811445    0.006952574
     14        8           0.006071889    0.005783716   -0.004665509
     15        8          -0.003762974    0.002808955   -0.002820046
     16        1           0.000964750   -0.001278536    0.001266692
     17        1           0.000513155   -0.000278701    0.001929164
     18        1           0.001124842   -0.001013436    0.000818906
     19        1          -0.001633850    0.000439517   -0.000495358
     20        1          -0.000925687    0.000912196   -0.001380094
     21        1           0.000055066    0.000665992   -0.002495823
     22        1           0.000873555    0.000023358   -0.000475537
     23        1          -0.000962811   -0.002384431    0.001258372
     24        1          -0.001510080   -0.000561186   -0.000393269
     25        1          -0.002020554    0.002036270   -0.002900858
     26        1          -0.001031998    0.002056551   -0.003532796
     27        1          -0.003730665   -0.000564016   -0.002537575
     28        1          -0.002759473   -0.001220939    0.003114700
     29        1          -0.001285554   -0.001057780    0.006552372
     30        1          -0.003866931   -0.000082457   -0.001888803
     31        1          -0.000292986    0.004077901   -0.002694224
 -------------------------------------------------------------------
 Cartesian Forces:  Max     0.012614335 RMS     0.003801034

 GradGradGradGradGradGradGradGradGradGradGradGradGradGradGradGradGradGrad
 Berny optimization.
 FormGI is forming the generalized inverse of G from B-inverse, IUseBI=4.
 Internal  Forces:  Max     0.015056215 RMS     0.003158828
 Search for a local minimum.
 Step number   1 out of a maximum of  160
 All quantities printed in internal units (Hartrees-Bohrs-Radians)
 Mixed Optimization -- RFO/linear search
 Second derivative matrix not updated -- first step.
 ITU=  0
     Eigenvalues ---    0.00230   0.00253   0.00317   0.00334   0.00357
     Eigenvalues ---    0.00481   0.01013   0.01237   0.02413   0.02420
     Eigenvalues ---    0.02434   0.02439   0.02450   0.02468   0.03227
     Eigenvalues ---    0.03235   0.03245   0.03329   0.03475   0.04492
     Eigenvalues ---    0.04616   0.04702   0.04728   0.04754   0.04860
     Eigenvalues ---    0.05528   0.05715   0.05754   0.07774   0.08514
     Eigenvalues ---    0.08649   0.08795   0.08824   0.11743   0.12335
     Eigenvalues ---    0.12441   0.12536   0.12559   0.14044   0.16000
     Eigenvalues ---    0.16000   0.16000   0.16000   0.16000   0.18336
     Eigenvalues ---    0.20692   0.21883   0.21917   0.21925   0.21946
     Eigenvalues ---    0.22010   0.24999   0.25000   0.25000   0.25000
     Eigenvalues ---    0.25000   0.25000   0.28440   0.28628   0.29063
     Eigenvalues ---    0.29181   0.29342   0.30222   0.33950   0.34027
     Eigenvalues ---    0.34083   0.34100   0.34130   0.34146   0.34156
     Eigenvalues ---    0.34160   0.34200   0.34229   0.34262   0.34271
     Eigenvalues ---    0.34295   0.34361   0.38075   0.40365   0.51929
     Eigenvalues ---    0.52082   0.56002   0.56115   0.56601   0.56905
     Eigenvalues ---    0.96594   0.97243
 RFO step:  Lambda=-7.54184326D-03 EMin= 2.30000000D-03
 Linear search not attempted -- first point.
 Iteration  1 RMS(Cart)=  0.08686451 RMS(Int)=  0.00199120
 Iteration  2 RMS(Cart)=  0.00339046 RMS(Int)=  0.00022161
 Iteration  3 RMS(Cart)=  0.00000470 RMS(Int)=  0.00022158
 Iteration  4 RMS(Cart)=  0.00000000 RMS(Int)=  0.00022158
 Variable       Old X    -DE/DX   Delta X   Delta X   Delta X     New X
                                 (Linear)    (Quad)   (Total)
    R1        2.87524   0.00712   0.00000   0.02298   0.02298   2.89822
    R2        2.06724   0.00095   0.00000   0.00271   0.00271   2.06995
    R3        2.06890   0.00076   0.00000   0.00218   0.00218   2.07108
    R4        2.06835   0.00137   0.00000   0.00392   0.00392   2.07227
    R5        2.89294   0.00389   0.00000   0.01292   0.01292   2.90586
    R6        2.06993   0.00171   0.00000   0.00490   0.00490   2.07484
    R7        2.07285   0.00076   0.00000   0.00218   0.00218   2.07503
    R8        2.89626   0.00403   0.00000   0.01346   0.01346   2.90972
    R9        2.07084   0.00248   0.00000   0.00711   0.00711   2.07796
   R10        2.07415   0.00087   0.00000   0.00250   0.00250   2.07665
   R11        2.89871   0.00151   0.00000   0.00507   0.00507   2.90378
   R12        2.06945   0.00030   0.00000   0.00087   0.00087   2.07032
   R13        2.07190  -0.00070   0.00000  -0.00200  -0.00200   2.06989
   R14        2.90786  -0.00452   0.00000  -0.01537  -0.01537   2.89249
   R15        2.06875  -0.00257   0.00000  -0.00733  -0.00733   2.06142
   R16        2.07111  -0.00025   0.00000  -0.00073  -0.00073   2.07038
   R17        2.91186  -0.00817   0.00000  -0.02800  -0.02800   2.88386
   R18        2.74256  -0.00181   0.00000  -0.00466  -0.00466   2.73790
   R19        2.07068  -0.00074   0.00000  -0.00211  -0.00211   2.06857
   R20        2.71061  -0.00293   0.00000  -0.00713  -0.00713   2.70347
   R21        2.07162  -0.00185   0.00000  -0.00532  -0.00532   2.06630
   R22        2.07060  -0.00222   0.00000  -0.00637  -0.00637   2.06423
   R23        2.54253  -0.01212   0.00000  -0.02135  -0.02135   2.52118
   R24        2.30035  -0.00512   0.00000  -0.00526  -0.00526   2.29509
   R25        2.53477   0.00288   0.00000   0.00500   0.00500   2.53977
   R26        1.84521  -0.00348   0.00000  -0.00659  -0.00659   1.83862
   R27        2.54154  -0.00865   0.00000  -0.01522  -0.01522   2.52633
   R28        2.29764  -0.00595   0.00000  -0.00607  -0.00607   2.29157
   R29        2.53736   0.00673   0.00000   0.01174   0.01174   2.54909
   R30        1.84667  -0.00394   0.00000  -0.00747  -0.00747   1.83920
    A1        1.94611   0.00137   0.00000   0.00732   0.00725   1.95335
    A2        1.92031   0.00250   0.00000   0.01816   0.01807   1.93838
    A3        1.93904   0.00016   0.00000  -0.00149  -0.00149   1.93754
    A4        1.87606  -0.00140   0.00000  -0.00367  -0.00382   1.87224
    A5        1.89499  -0.00160   0.00000  -0.01553  -0.01551   1.87947
    A6        1.88518  -0.00120   0.00000  -0.00562  -0.00563   1.87955
    A7        1.98116   0.00184   0.00000   0.01041   0.01036   1.99152
    A8        1.91231  -0.00053   0.00000  -0.00376  -0.00371   1.90860
    A9        1.89407   0.00042   0.00000   0.01110   0.01104   1.90511
   A10        1.92773  -0.00090   0.00000  -0.00908  -0.00907   1.91865
   A11        1.88912  -0.00075   0.00000  -0.00055  -0.00070   1.88842
   A12        1.85469  -0.00019   0.00000  -0.00894  -0.00895   1.84574
   A13        2.01666  -0.00037   0.00000  -0.00065  -0.00066   2.01600
   A14        1.89772   0.00002   0.00000  -0.00177  -0.00177   1.89595
   A15        1.89227   0.00041   0.00000   0.00514   0.00513   1.89740
   A16        1.91742   0.00013   0.00000  -0.00109  -0.00110   1.91632
   A17        1.88481   0.00019   0.00000   0.00328   0.00327   1.88807
   A18        1.84737  -0.00037   0.00000  -0.00522  -0.00522   1.84215
   A19        2.01292   0.00013   0.00000   0.00216   0.00218   2.01510
   A20        1.88842   0.00134   0.00000   0.01740   0.01738   1.90580
   A21        1.90293   0.00115   0.00000   0.00971   0.00970   1.91263
   A22        1.91825  -0.00090   0.00000  -0.00649  -0.00659   1.91166
   A23        1.89246  -0.00140   0.00000  -0.01669  -0.01672   1.87574
   A24        1.84118  -0.00035   0.00000  -0.00679  -0.00701   1.83417
   A25        1.99698  -0.00406   0.00000  -0.02288  -0.02341   1.97357
   A26        1.87418   0.00360   0.00000   0.04382   0.04379   1.91797
   A27        1.92328   0.00219   0.00000  -0.00049  -0.00203   1.92125
   A28        1.91844   0.00029   0.00000   0.00771   0.00802   1.92646
   A29        1.91131  -0.00185   0.00000  -0.04139  -0.04198   1.86932
   A30        1.83216   0.00031   0.00000   0.01871   0.01856   1.85072
   A31        2.02791   0.00012   0.00000   0.00818   0.00812   2.03603
   A32        1.97110   0.00175   0.00000   0.01637   0.01633   1.98743
   A33        1.86994   0.00202   0.00000   0.02385   0.02402   1.89397
   A34        1.92489  -0.00096   0.00000  -0.00369  -0.00398   1.92091
   A35        1.85118  -0.00153   0.00000  -0.02108  -0.02132   1.82986
   A36        1.79892  -0.00175   0.00000  -0.03010  -0.03039   1.76853
   A37        1.97470   0.00408   0.00000   0.00951   0.00924   1.98393
   A38        1.89383   0.00016   0.00000   0.01300   0.01307   1.90690
   A39        1.94589  -0.00405   0.00000  -0.02998  -0.03020   1.91569
   A40        1.83845  -0.00210   0.00000  -0.00752  -0.00757   1.83087
   A41        1.94509  -0.00178   0.00000  -0.02537  -0.02575   1.91933
   A42        1.85810   0.00392   0.00000   0.04594   0.04615   1.90425
   A43        2.03410  -0.00239   0.00000  -0.00928  -0.00928   2.02482
   A44        2.24045  -0.00848   0.00000  -0.03299  -0.03308   2.20737
   A45        1.91202  -0.00658   0.00000  -0.02562  -0.02572   1.88630
   A46        2.13067   0.01506   0.00000   0.05840   0.05829   2.18896
   A47        1.80647   0.00459   0.00000   0.02737   0.02737   1.83384
   A48        2.10375  -0.00112   0.00000  -0.00433  -0.00433   2.09941
   A49        2.25945  -0.00380   0.00000  -0.01491  -0.01521   2.24424
   A50        1.90340  -0.00962   0.00000  -0.03750  -0.03783   1.86557
   A51        2.12026   0.01341   0.00000   0.05191   0.05157   2.17183
   A52        1.79574   0.00528   0.00000   0.03149   0.03149   1.82723
    D1       -1.18569   0.00092   0.00000   0.02293   0.02300  -1.16268
    D2        0.97832   0.00068   0.00000   0.01569   0.01574   0.99406
    D3        2.99648   0.00040   0.00000   0.00916   0.00915   3.00564
    D4        3.01758   0.00017   0.00000   0.01097   0.01097   3.02855
    D5       -1.10160  -0.00008   0.00000   0.00373   0.00370  -1.09789
    D6        0.91656  -0.00036   0.00000  -0.00281  -0.00288   0.91368
    D7        0.93078  -0.00007   0.00000   0.00711   0.00714   0.93792
    D8        3.09479  -0.00032   0.00000  -0.00012  -0.00012   3.09466
    D9       -1.17024  -0.00060   0.00000  -0.00666  -0.00671  -1.17695
   D10        0.99800  -0.00018   0.00000   0.00375   0.00375   1.00175
   D11       -3.12040  -0.00027   0.00000   0.00039   0.00039  -3.12002
   D12       -1.11965  -0.00048   0.00000  -0.00399  -0.00400  -1.12365
   D13       -1.15761  -0.00015   0.00000   0.00802   0.00804  -1.14956
   D14        1.00718  -0.00024   0.00000   0.00466   0.00468   1.01186
   D15        3.00793  -0.00045   0.00000   0.00029   0.00030   3.00823
   D16        3.10181   0.00100   0.00000   0.02404   0.02403   3.12584
   D17       -1.01659   0.00091   0.00000   0.02068   0.02067  -0.99592
   D18        0.98416   0.00069   0.00000   0.01631   0.01629   1.00045
   D19        1.05495  -0.00065   0.00000  -0.02797  -0.02800   1.02695
   D20       -3.07245  -0.00068   0.00000  -0.02130  -0.02131  -3.09375
   D21       -1.07831   0.00020   0.00000  -0.01513  -0.01511  -1.09342
   D22       -1.09950  -0.00050   0.00000  -0.02422  -0.02425  -1.12376
   D23        1.05628  -0.00054   0.00000  -0.01756  -0.01756   1.03872
   D24        3.05041   0.00035   0.00000  -0.01139  -0.01136   3.03906
   D25       -3.10657  -0.00023   0.00000  -0.01925  -0.01928  -3.12584
   D26       -0.95078  -0.00026   0.00000  -0.01258  -0.01258  -0.96336
   D27        1.04335   0.00062   0.00000  -0.00641  -0.00638   1.03697
   D28        1.24464  -0.00169   0.00000  -0.07766  -0.07764   1.16700
   D29       -2.90421  -0.00135   0.00000  -0.05063  -0.05080  -2.95500
   D30       -0.91790   0.00207   0.00000  -0.00514  -0.00503  -0.92293
   D31       -0.89532  -0.00286   0.00000  -0.09718  -0.09709  -0.99241
   D32        1.23902  -0.00251   0.00000  -0.07015  -0.07024   1.16878
   D33       -3.05786   0.00091   0.00000  -0.02466  -0.02448  -3.08234
   D34       -2.89968  -0.00119   0.00000  -0.07638  -0.07639  -2.97607
   D35       -0.76534  -0.00084   0.00000  -0.04935  -0.04954  -0.81489
   D36        1.22096   0.00258   0.00000  -0.00386  -0.00378   1.21718
   D37        1.20900   0.00089   0.00000   0.01947   0.01906   1.22806
   D38       -2.82477   0.00130   0.00000   0.03770   0.03735  -2.78742
   D39       -0.85608   0.00129   0.00000   0.02399   0.02360  -0.83248
   D40       -0.90104  -0.00119   0.00000  -0.02733  -0.02741  -0.92845
   D41        1.34837  -0.00077   0.00000  -0.00910  -0.00912   1.33925
   D42       -2.96613  -0.00078   0.00000  -0.02281  -0.02287  -2.98900
   D43       -2.90525  -0.00068   0.00000  -0.03079  -0.03039  -2.93564
   D44       -0.65584  -0.00026   0.00000  -0.01256  -0.01209  -0.66793
   D45        1.31285  -0.00028   0.00000  -0.02628  -0.02585   1.28700
   D46        1.16448  -0.00046   0.00000   0.01073   0.01080   1.17529
   D47       -3.08520  -0.00056   0.00000   0.01541   0.01549  -3.06971
   D48       -1.04432   0.00199   0.00000   0.06211   0.06199  -0.98233
   D49       -1.10712  -0.00216   0.00000  -0.01652  -0.01636  -1.12348
   D50        0.92639  -0.00226   0.00000  -0.01184  -0.01168   0.91471
   D51        2.96726   0.00029   0.00000   0.03486   0.03482   3.00209
   D52       -3.04336   0.00107   0.00000   0.03064   0.03059  -3.01277
   D53       -1.00985   0.00097   0.00000   0.03532   0.03528  -0.97457
   D54        1.03102   0.00352   0.00000   0.08202   0.08178   1.11280
   D55       -0.92241   0.00190   0.00000   0.08109   0.08099  -0.84142
   D56        1.37906   0.00274   0.00000   0.10351   0.10339   1.48244
   D57       -2.93411  -0.00027   0.00000   0.06291   0.06312  -2.87099
   D58       -1.70641   0.00247   0.00000   0.06804   0.06794  -1.63847
   D59        2.51082   0.00139   0.00000   0.05184   0.05183   2.56265
   D60        0.50282  -0.00119   0.00000   0.01423   0.01434   0.51716
   D61        0.00314  -0.00032   0.00000  -0.01076  -0.01034  -0.00721
   D62       -3.12955   0.00047   0.00000   0.01561   0.01520  -3.11435
   D63       -3.10622  -0.00085   0.00000  -0.02540  -0.02581  -3.13203
   D64        0.04362   0.00001   0.00000  -0.00048  -0.00006   0.04356
   D65        0.09600   0.00132   0.00000   0.04250   0.04199   0.13799
   D66       -3.05811  -0.00011   0.00000  -0.00425  -0.00374  -3.06185
   D67        3.12642   0.00123   0.00000   0.03739   0.03791  -3.11885
   D68       -0.02651  -0.00020   0.00000  -0.00543  -0.00595  -0.03247
         Item               Value     Threshold  Converged?
 Maximum Force            0.015056     0.000450     NO 
 RMS     Force            0.003159     0.000300     NO 
 Maximum Displacement     0.298502     0.001800     NO 
 RMS     Displacement     0.088080     0.001200     NO 
 Predicted change in Energy=-4.201888D-03
 GradGradGradGradGradGradGradGradGradGradGradGradGradGradGradGradGradGrad

                          Input orientation:                          
 ---------------------------------------------------------------------
 Center     Atomic      Atomic             Coordinates (Angstroms)
 Number     Number       Type             X           Y           Z
 ---------------------------------------------------------------------
      1          6           0        0.970667   -0.032902   -0.017559
      2          6           0        0.621193    0.170051   -1.497028
      3          6           0        1.115854   -0.956457   -2.419450
      4          6           0        0.615710   -2.369514   -2.067350
      5          6           0       -0.910524   -2.547732   -2.062215
      6          6           0       -1.535365   -2.409688   -3.452672
      7          6           0       -1.253027   -3.534297   -4.444860
      8          8           0       -1.854302   -4.781694   -4.085511
      9          6           0       -1.086706   -5.622348   -3.389773
     10          8           0        0.061933   -5.432893   -3.043705
     11          8           0       -1.791195   -6.745615   -3.170051
     12          8           0       -2.952680   -2.109887   -3.431429
     13          6           0       -3.780044   -2.817850   -2.655869
     14          8           0       -3.504532   -3.649427   -1.817370
     15          8           0       -5.030333   -2.385600   -2.919557
     16          1           0        0.443848   -0.891344    0.412999
     17          1           0        0.698019    0.847249    0.575857
     18          1           0        2.046203   -0.202506    0.112739
     19          1           0       -0.465293    0.289202   -1.601251
     20          1           0        1.059418    1.115048   -1.844410
     21          1           0        0.838211   -0.710290   -3.454560
     22          1           0        2.214601   -0.967916   -2.403983
     23          1           0        1.066617   -3.093047   -2.755426
     24          1           0        0.983186   -2.652414   -1.075028
     25          1           0       -1.170133   -3.511980   -1.623136
     26          1           0       -1.375668   -1.789064   -1.423154
     27          1           0       -1.132210   -1.509358   -3.927133
     28          1           0       -1.691811   -3.279328   -5.413400
     29          1           0       -0.174441   -3.660395   -4.563057
     30          1           0       -1.197648   -7.319986   -2.655815
     31          1           0       -5.601157   -2.904230   -2.325902
 ---------------------------------------------------------------------
                    Distance matrix (angstroms):
                    1          2          3          4          5
     1  C    0.000000
     2  C    1.533672   0.000000
     3  C    2.577424   1.537716   0.000000
     4  C    3.128481   2.602823   1.539757   0.000000
     5  C    3.747514   3.170478   2.601149   1.536613   0.000000
     6  C    4.871274   3.889773   3.195057   2.558878   1.530638
     7  C    6.066760   5.091622   4.044644   3.240595   2.601465
     8  O    6.861465   6.111309   5.121525   3.999068   3.158327
     9  C    6.844452   6.328609   5.250080   3.902301   3.353613
    10  O    6.256457   5.839346   4.641005   3.262549   3.198930
    11  O    7.913697   7.512992   6.521402   5.114626   4.430023
    12  O    5.600092   4.659677   4.348272   3.829038   2.497371
    13  C    6.106216   5.444387   5.243138   4.457580   2.942709
    14  O    6.028763   5.631397   5.381687   4.321697   2.828880
    15  O    7.068859   6.363543   6.329942   5.710019   4.211193
    16  H    1.095372   2.192307   2.911803   2.892517   3.271792
    17  H    1.095968   2.182052   3.521336   4.164239   4.590504
    18  H    1.096595   2.181927   2.801067   3.390431   4.355771
    19  H    2.161900   1.097958   2.172818   2.907677   2.908420
    20  H    2.159410   1.098060   2.150578   3.519766   4.164620
    21  H    3.505620   2.157320   1.099607   2.174140   2.893594
    22  H    2.848972   2.157890   1.098916   2.152731   3.518384
    23  H    4.107263   3.525589   2.163405   1.095566   2.164947
    24  H    2.824932   2.876705   2.168258   1.095341   2.138137
    25  H    4.389178   4.096597   3.520021   2.166054   1.090854
    26  H    3.250399   2.798400   2.809542   2.171981   1.095598
    27  H    4.678332   3.435149   2.762716   2.693305   2.145993
    28  H    6.836897   5.708429   4.716190   4.165149   3.517965
    29  H    5.927185   4.970501   3.683910   2.918778   2.834439
    30  H    8.047582   7.794333   6.775150   5.304878   4.817594
    31  H    7.534045   6.989697   6.994341   6.245175   4.711546
                    6          7          8          9         10
     6  C    0.000000
     7  C    1.526073   0.000000
     8  O    2.475605   1.430616   0.000000
     9  C    3.244447   2.345385   1.334149   0.000000
    10  O    3.443601   2.701300   2.276264   1.214508   0.000000
    11  O    4.352653   3.496759   2.167725   1.343990   2.274486
    12  O    1.448832   2.438199   2.961894   3.977560   4.503398
    13  C    2.416625   3.177988   3.099846   3.957006   4.663653
    14  O    2.844079   3.462114   3.024855   3.494388   4.171849
    15  O    3.535476   4.232505   4.145828   5.123459   5.935704
    16  H    4.600659   5.784754   6.375963   6.259878   5.720168
    17  H    5.641337   6.943495   7.741298   7.795329   7.276401
    18  H    5.514657   6.538920   7.335408   7.173382   6.423194
    19  H    3.443373   4.829677   5.815056   6.207366   5.924610
    20  H    4.662957   5.807422   6.948658   7.237852   6.731182
    21  H    2.919216   3.650889   4.921794   5.276156   4.803581
    22  H    4.152192   4.772414   5.824810   5.790868   4.997924
    23  H    2.779108   2.903384   3.626627   3.381799   2.562689
    24  H    3.472060   4.139340   4.652760   4.296860   3.529229
    25  H    2.166943   2.823029   2.853690   2.753474   2.688104
    26  H    2.128290   3.491646   4.033989   4.318004   4.239148
    27  H    1.094642   2.093565   3.354800   4.148194   4.195301
    28  H    2.150628   1.093439   2.011665   3.154514   3.650879
    29  H    2.156232   1.092345   2.075402   2.461318   2.346498
    30  H    4.985986   4.187503   2.986327   1.852829   2.301765
    31  H    4.247922   4.877828   4.545329   5.375896   6.243394
                   11         12         13         14         15
    11  O    0.000000
    12  O    4.786161   0.000000
    13  C    4.432520   1.336876   0.000000
    14  O    3.788356   2.297806   1.212645   0.000000
    15  O    5.437323   2.157468   1.348923   2.267188   0.000000
    16  H    7.218459   5.272654   5.565127   5.307662   6.580683
    17  H    8.824941   6.174998   6.627975   6.603716   7.448707
    18  H    8.265266   6.417793   6.960631   6.813021   8.002380
    19  H    7.328560   3.910533   4.664071   4.979606   5.452713
    20  H    8.466010   5.386628   6.288604   6.597772   7.106021
    21  H    6.589375   4.041072   5.138871   5.493481   6.126393
    22  H    7.072133   5.390783   6.278652   6.343745   7.400318
    23  H    4.656206   4.192653   4.855489   4.699459   6.140050
    24  H    5.370345   4.619308   5.021433   4.656685   6.295703
    25  H    3.638001   2.900563   2.891365   2.346495   4.224995
    26  H    5.271784   2.573531   2.891195   2.854543   3.993951
    27  H    5.331587   1.980017   3.215476   3.828695   4.120481
    28  H    4.130089   2.624041   3.489650   4.044052   4.261893
    29  H    3.751392   3.376873   4.165047   4.316065   5.282601
    30  H    0.972953   5.552193   5.190182   4.415620   6.253574
    31  H    5.475822   2.977851   1.852779   2.282490   0.973264
                   16         17         18         19         20
    16  H    0.000000
    17  H    1.764605   0.000000
    18  H    1.769801   1.770329   0.000000
    19  H    2.505480   2.530714   3.080123   0.000000
    20  H    3.082276   2.461711   2.557367   1.750969   0.000000
    21  H    3.891826   4.323175   3.800357   2.476461   2.444048
[...]
   251    O   12  px     Ryd( 5p)     0.00005       5.26524
   252    O   12  py     Val( 2p)     0.80680      -0.24313
   253    O   12  py     Ryd( 3p)     0.00165       1.04938
   254    O   12  py     Ryd( 4p)     0.00018       1.27444
   255    O   12  py     Ryd( 5p)     0.00001       5.26737
   256    O   12  pz     Val( 2p)     0.85171      -0.25167
   257    O   12  pz     Ryd( 3p)     0.00170       1.03822
   258    O   12  pz     Ryd( 4p)     0.00020       1.14005
   259    O   12  pz     Ryd( 5p)     0.00008       5.25132
   260    O   12  dxy    Ryd( 3d)     0.00028       3.36259
   261    O   12  dxz    Ryd( 3d)     0.00059       3.53746
   262    O   12  dyz    Ryd( 3d)     0.00034       3.12765
   263    O   12  dx2y2  Ryd( 3d)     0.00036       3.25362
   264    O   12  dz2    Ryd( 3d)     0.00051       3.21338
 
   265    C   13  S      Cor( 1S)     0.99976     -10.15274
   266    C   13  S      Val( 2S)     0.33721      -0.04700
   267    C   13  S      Ryd( 3S)     0.00106       0.89949
   268    C   13  S      Ryd( 4S)     0.00068       2.96372
   269    C   13  S      Ryd( 5S)     0.00018      15.98929
   270    C   13  px     Val( 2p)     0.37535       0.00006
   271    C   13  px     Ryd( 4p)     0.00249       1.21431
   272    C   13  px     Ryd( 3p)     0.00023       0.97838
   273    C   13  px     Ryd( 5p)     0.00015       1.88259
   274    C   13  py     Val( 2p)     0.37156       0.02472
   275    C   13  py     Ryd( 3p)     0.00518       1.42904
   276    C   13  py     Ryd( 4p)     0.00021       1.46507
   277    C   13  py     Ryd( 5p)     0.00015       1.88708
   278    C   13  pz     Val( 2p)     0.37447       0.04070
   279    C   13  pz     Ryd( 4p)     0.00739       1.25106
   280    C   13  pz     Ryd( 3p)     0.00032       0.71513
   281    C   13  pz     Ryd( 5p)     0.00014       1.91963
   282    C   13  dxy    Ryd( 3d)     0.00179       2.10688
   283    C   13  dxz    Ryd( 3d)     0.00189       2.31873
   284    C   13  dyz    Ryd( 3d)     0.00170       2.38827
   285    C   13  dx2y2  Ryd( 3d)     0.00232       2.03474
   286    C   13  dz2    Ryd( 3d)     0.00285       2.09180
 
   287    O   14  S      Cor( 1S)     0.99986     -18.75211
   288    O   14  S      Val( 2S)     0.85870      -0.81234
   289    O   14  S      Ryd( 3S)     0.00122       1.68829
   290    O   14  S      Ryd( 4S)     0.00018       2.13733
   291    O   14  S      Ryd( 5S)     0.00000      49.76921
   292    O   14  px     Val( 2p)     0.82816      -0.17341
   293    O   14  px     Ryd( 3p)     0.00044       0.77089
   294    O   14  px     Ryd( 4p)     0.00016       1.15228
   295    O   14  px     Ryd( 5p)     0.00001       5.10271
   296    O   14  py     Val( 2p)     0.84597      -0.18630
   297    O   14  py     Ryd( 3p)     0.00061       1.02663
   298    O   14  py     Ryd( 4p)     0.00024       1.27528
   299    O   14  py     Ryd( 5p)     0.00004       5.24179
   300    O   14  pz     Val( 2p)     0.78495      -0.19540
   301    O   14  pz     Ryd( 4p)     0.00032       1.09683
   302    O   14  pz     Ryd( 3p)     0.00032       1.09395
   303    O   14  pz     Ryd( 5p)     0.00006       5.26146
   304    O   14  dxy    Ryd( 3d)     0.00036       3.12938
   305    O   14  dxz    Ryd( 3d)     0.00051       3.26847
   306    O   14  dyz    Ryd( 3d)     0.00067       3.61951
   307    O   14  dx2y2  Ryd( 3d)     0.00030       3.14898
   308    O   14  dz2    Ryd( 3d)     0.00078       3.35148
 
   309    O   15  S      Cor( 1S)     0.99987     -18.86610
   310    O   15  S      Val( 2S)     0.84436      -0.85229
   311    O   15  S      Ryd( 3S)     0.00074       1.05663
   312    O   15  S      Ryd( 4S)     0.00021       1.28405
   313    O   15  S      Ryd( 5S)     0.00000      49.62848
   314    O   15  px     Val( 2p)     0.82659      -0.23573
   315    O   15  px     Ryd( 3p)     0.00030       0.57694
   316    O   15  px     Ryd( 4p)     0.00064       1.14909
   317    O   15  px     Ryd( 5p)     0.00001       5.22485
   318    O   15  py     Val( 2p)     0.79442      -0.24741
   319    O   15  py     Ryd( 3p)     0.00045       0.73596
   320    O   15  py     Ryd( 4p)     0.00047       1.11780
   321    O   15  py     Ryd( 5p)     0.00007       5.30742
   322    O   15  pz     Val( 2p)     0.86671      -0.24403
   323    O   15  pz     Ryd( 3p)     0.00045       0.49855
   324    O   15  pz     Ryd( 4p)     0.00039       1.18639
   325    O   15  pz     Ryd( 5p)     0.00002       5.24727
   326    O   15  dxy    Ryd( 3d)     0.00040       3.31791
   327    O   15  dxz    Ryd( 3d)     0.00057       3.45926
   328    O   15  dyz    Ryd( 3d)     0.00045       3.22081
   329    O   15  dx2y2  Ryd( 3d)     0.00042       3.30263
   330    O   15  dz2    Ryd( 3d)     0.00051       3.20145
 
   331    H   16  S      Val( 1S)     0.40352       0.12753
   332    H   16  S      Ryd( 2S)     0.00030       0.56847
   333    H   16  S      Ryd( 4S)     0.00031       1.69391
   334    H   16  S      Ryd( 3S)     0.00002       0.91831
   335    H   16  px     Ryd( 2p)     0.00009       2.25141
   336    H   16  py     Ryd( 2p)     0.00007       1.89870
   337    H   16  pz     Ryd( 2p)     0.00010       2.38063
 
   338    H   17  S      Val( 1S)     0.39937       0.12990
   339    H   17  S      Ryd( 2S)     0.00030       0.36408
   340    H   17  S      Ryd( 4S)     0.00025       1.37941
   341    H   17  S      Ryd( 3S)     0.00002       1.32402
   342    H   17  px     Ryd( 2p)     0.00009       2.18995
   343    H   17  py     Ryd( 2p)     0.00012       2.45095
   344    H   17  pz     Ryd( 2p)     0.00006       1.83174
 
   345    H   18  S      Val( 1S)     0.40394       0.12436
   346    H   18  S      Ryd( 2S)     0.00026       0.40431
   347    H   18  S      Ryd( 4S)     0.00035       1.61373
   348    H   18  S      Ryd( 3S)     0.00002       1.07010
   349    H   18  px     Ryd( 2p)     0.00009       2.21849
   350    H   18  py     Ryd( 2p)     0.00011       2.43708
   351    H   18  pz     Ryd( 2p)     0.00007       1.83577
 
   352    H   19  S      Val( 1S)     0.40542       0.13066
   353    H   19  S      Ryd( 2S)     0.00055       0.53153
   354    H   19  S      Ryd( 4S)     0.00048       1.94165
   355    H   19  S      Ryd( 3S)     0.00002       0.90241
   356    H   19  px     Ryd( 2p)     0.00010       2.23162
   357    H   19  py     Ryd( 2p)     0.00016       2.55453
   358    H   19  pz     Ryd( 2p)     0.00007       1.94698
 
   359    H   20  S      Val( 1S)     0.40034       0.13405
   360    H   20  S      Ryd( 2S)     0.00085       0.34475
   361    H   20  S      Ryd( 4S)     0.00040       1.78080
   362    H   20  S      Ryd( 3S)     0.00001       1.09002
   363    H   20  px     Ryd( 2p)     0.00012       2.38535
   364    H   20  py     Ryd( 2p)     0.00007       1.89003
   365    H   20  pz     Ryd( 2p)     0.00014       2.40566
 
   366    H   21  S      Val( 1S)     0.40444       0.12936
   367    H   21  S      Ryd( 2S)     0.00071       0.50333
   368    H   21  S      Ryd( 4S)     0.00039       1.82959
   369    H   21  S      Ryd( 3S)     0.00002       1.05225
   370    H   21  px     Ryd( 2p)     0.00008       2.02401
   371    H   21  py     Ryd( 2p)     0.00007       1.92516
   372    H   21  pz     Ryd( 2p)     0.00015       2.71757
 
   373    H   22  S      Val( 1S)     0.40177       0.13480
   374    H   22  S      Ryd( 2S)     0.00027       0.41792
   375    H   22  S      Ryd( 4S)     0.00042       1.71834
   376    H   22  S      Ryd( 3S)     0.00001       1.16289
   377    H   22  px     Ryd( 2p)     0.00010       2.24389
   378    H   22  py     Ryd( 2p)     0.00012       2.48721
   379    H   22  pz     Ryd( 2p)     0.00007       1.94062
 
   380    H   23  S      Val( 1S)     0.39166       0.15464
   381    H   23  S      Ryd( 2S)     0.00062       0.53394
   382    H   23  S      Ryd( 4S)     0.00036       1.76209
   383    H   23  S      Ryd( 3S)     0.00004       1.19822
   384    H   23  px     Ryd( 2p)     0.00012       2.15953
   385    H   23  py     Ryd( 2p)     0.00013       2.60391
   386    H   23  pz     Ryd( 2p)     0.00007       2.00116
 
   387    H   24  S      Val( 1S)     0.40070       0.13822
   388    H   24  S      Ryd( 2S)     0.00046       0.48501
   389    H   24  S      Ryd( 4S)     0.00026       1.86256
   390    H   24  S      Ryd( 3S)     0.00003       1.21446
   391    H   24  px     Ryd( 2p)     0.00009       2.08966
   392    H   24  py     Ryd( 2p)     0.00008       1.98674
   393    H   24  pz     Ryd( 2p)     0.00014       2.65818
 
   394    H   25  S      Val( 1S)     0.37892       0.16989
   395    H   25  S      Ryd( 2S)     0.00072       0.52213
   396    H   25  S      Ryd( 4S)     0.00040       1.93811
   397    H   25  S      Ryd( 3S)     0.00003       1.03973
   398    H   25  px     Ryd( 2p)     0.00012       2.39012
   399    H   25  py     Ryd( 2p)     0.00008       2.07346
   400    H   25  pz     Ryd( 2p)     0.00010       2.42982
 
   401    H   26  S      Val( 1S)     0.39754       0.13246
   402    H   26  S      Ryd( 2S)     0.00050       0.66103
   403    H   26  S      Ryd( 4S)     0.00049       1.76508
   404    H   26  S      Ryd( 3S)     0.00004       1.01565
   405    H   26  px     Ryd( 2p)     0.00008       2.22716
   406    H   26  py     Ryd( 2p)     0.00012       2.52235
   407    H   26  pz     Ryd( 2p)     0.00009       2.08112
 
   408    H   27  S      Val( 1S)     0.39715       0.11305
   409    H   27  S      Ryd( 2S)     0.00104       0.56644
   410    H   27  S      Ryd( 4S)     0.00053       1.70735
   411    H   27  S      Ryd( 3S)     0.00005       1.12874
   412    H   27  px     Ryd( 2p)     0.00017       2.59709
   413    H   27  py     Ryd( 2p)     0.00007       2.05849
   414    H   27  pz     Ryd( 2p)     0.00016       2.46247
 
   415    H   28  S      Val( 1S)     0.40035       0.10462
   416    H   28  S      Ryd( 2S)     0.00052       0.46482
   417    H   28  S      Ryd( 4S)     0.00037       1.57485
   418    H   28  S      Ryd( 3S)     0.00008       1.13876
   419    H   28  px     Ryd( 2p)     0.00005       1.96753
   420    H   28  py     Ryd( 2p)     0.00008       2.04848
   421    H   28  pz     Ryd( 2p)     0.00019       2.85863
 
   422    H   29  S      Val( 1S)     0.39530       0.10216
   423    H   29  S      Ryd( 2S)     0.00049       0.59635
   424    H   29  S      Ryd( 4S)     0.00044       1.70809
   425    H   29  S      Ryd( 3S)     0.00002       1.01114
   426    H   29  px     Ryd( 2p)     0.00007       2.15403
   427    H   29  py     Ryd( 2p)     0.00019       2.67257
   428    H   29  pz     Ryd( 2p)     0.00007       2.00710
 
   429    H   30  S      Val( 1S)     0.24367       0.14113
   430    H   30  S      Ryd( 2S)     0.00795       0.24371
   431    H   30  S      Ryd( 4S)     0.00026       2.23413
   432    H   30  S      Ryd( 3S)     0.00006       0.71275
   433    H   30  px     Ryd( 2p)     0.00055       1.83460
   434    H   30  py     Ryd( 2p)     0.00059       2.07404
   435    H   30  pz     Ryd( 2p)     0.00061       2.23610
 
   436    H   31  S      Val( 1S)     0.24443       0.14549
   437    H   31  S      Ryd( 2S)     0.00750       0.24065
   438    H   31  S      Ryd( 4S)     0.00027       2.25955
   439    H   31  S      Ryd( 3S)     0.00006       0.70785
   440    H   31  px     Ryd( 2p)     0.00062       2.10743
   441    H   31  py     Ryd( 2p)     0.00057       1.83514
   442    H   31  pz     Ryd( 2p)     0.00054       2.19674

 WARNING:  Population inversion found on atom  C    1
           Population inversion found on atom  C    2
           Population inversion found on atom  C    3
           Population inversion found on atom  C    4
           Population inversion found on atom  C    5
           Population inversion found on atom  C    6
           Population inversion found on atom  C    7
           Population inversion found on atom  C    9
           Population inversion found on atom  O   10
           Population inversion found on atom  O   11
           Population inversion found on atom  C   13
           Population inversion found on atom  O   15
           Population inversion found on atom  H   16
           Population inversion found on atom  H   17
           Population inversion found on atom  H   18
           Population inversion found on atom  H   19
           Population inversion found on atom  H   20
           Population inversion found on atom  H   21
           Population inversion found on atom  H   22
           Population inversion found on atom  H   23
           Population inversion found on atom  H   24
           Population inversion found on atom  H   25
           Population inversion found on atom  H   26
           Population inversion found on atom  H   27
           Population inversion found on atom  H   28
           Population inversion found on atom  H   29
           Population inversion found on atom  H   30
           Population inversion found on atom  H   31


 Summary of Natural Population Analysis:                  
                                                          
                                       Natural Population 
                Natural  -----------------------------------------------
    Atom  No    Charge         Core      Valence    Rydberg      Total
 -----------------------------------------------------------------------
      C    1   -0.28826      0.99967     2.28228    0.00631     3.28826
      C    2   -0.19343      0.99964     2.18551    0.00828     3.19343
      C    3   -0.19251      0.99963     2.18370    0.00918     3.19251
      C    4   -0.19370      0.99962     2.18674    0.00734     3.19370
      C    5   -0.21027      0.99959     2.20238    0.00829     3.21027
      C    6    0.05622      0.99950     1.93114    0.01313     2.94378
      C    7   -0.02381      0.99951     2.01221    0.01209     3.02381
      O    8   -0.27533      0.99985     3.26556    0.00992     4.27533
      C    9    0.51598      0.99976     1.45573    0.02853     2.48402
      O   10   -0.32939      0.99986     3.32383    0.00570     4.32939
      O   11   -0.33110      0.99987     3.32490    0.00633     4.33110
      O   12   -0.27962      0.99985     3.27013    0.00965     4.27962
      C   13    0.51292      0.99976     1.45858    0.02873     2.48708
      O   14   -0.32385      0.99986     3.31778    0.00621     4.32385
      O   15   -0.33805      0.99987     3.33208    0.00609     4.33805
      H   16    0.09560      0.00000     0.40352    0.00088     0.40440
      H   17    0.09979      0.00000     0.39937    0.00084     0.40021
      H   18    0.09517      0.00000     0.40394    0.00090     0.40483
      H   19    0.09321      0.00000     0.40542    0.00137     0.40679
      H   20    0.09807      0.00000     0.40034    0.00159     0.40193
      H   21    0.09415      0.00000     0.40444    0.00141     0.40585
      H   22    0.09724      0.00000     0.40177    0.00099     0.40276
      H   23    0.10701      0.00000     0.39166    0.00134     0.39299
      H   24    0.09824      0.00000     0.40070    0.00106     0.40176
      H   25    0.11963      0.00000     0.37892    0.00145     0.38037
      H   26    0.10114      0.00000     0.39754    0.00132     0.39886
      H   27    0.10084      0.00000     0.39715    0.00201     0.39916
      H   28    0.09836      0.00000     0.40035    0.00129     0.40164
      H   29    0.10343      0.00000     0.39530    0.00127     0.39657
      H   30    0.24631      0.00000     0.24367    0.01001     0.25369
      H   31    0.24601      0.00000     0.24443    0.00956     0.25399
 =======================================================================
   * Total *    0.00000     14.99585    43.80107    0.20308    59.00000

                                 Natural Population      
 --------------------------------------------------------
   Core                      14.99585 ( 99.9723% of  15)
   Valence                   43.80107 ( 99.5479% of  44)
   Natural Minimal Basis     58.79692 ( 99.6558% of  59)
   Natural Rydberg Basis      0.20308 (  0.3442% of  59)
 --------------------------------------------------------

    Atom  No          Natural Electron Configuration
 ----------------------------------------------------------------------------
      C    1      [core]2S( 0.54)2p( 1.74)
      C    2      [core]2S( 0.51)2p( 1.67)
      C    3      [core]2S( 0.51)2p( 1.67)
      C    4      [core]2S( 0.51)2p( 1.68)
      C    5      [core]2S( 0.51)2p( 1.69)
      C    6      [core]2S( 0.48)2p( 1.45)3p( 0.01)
      C    7      [core]2S( 0.51)2p( 1.51)3p( 0.01)
      O    8      [core]2S( 0.81)2p( 2.46)
      C    9      [core]2S( 0.34)2p( 1.12)3d( 0.01)4p( 0.01)
      O   10      [core]2S( 0.86)2p( 2.46)
      O   11      [core]2S( 0.84)2p( 2.48)
      O   12      [core]2S( 0.80)2p( 2.47)
      C   13      [core]2S( 0.34)2p( 1.12)3p( 0.01)3d( 0.01)4p( 0.01)
      O   14      [core]2S( 0.86)2p( 2.46)
      O   15      [core]2S( 0.84)2p( 2.49)
      H   16            1S( 0.40)
      H   17            1S( 0.40)
      H   18            1S( 0.40)
      H   19            1S( 0.41)
      H   20            1S( 0.40)
      H   21            1S( 0.40)
      H   22            1S( 0.40)
      H   23            1S( 0.39)
      H   24            1S( 0.40)
      H   25            1S( 0.38)
      H   26            1S( 0.40)
      H   27            1S( 0.40)
      H   28            1S( 0.40)
      H   29            1S( 0.40)
      H   30            1S( 0.24)2S( 0.01)
      H   31            1S( 0.24)2S( 0.01)


 NBO analysis skipped by request.
 1\1\GINC-NODE111\SP\UB3LYP\6-311++G(d,p)\C9H16O6(1-,2)\VSC10255\10-Dec
 -2020\0\\# B3LYP/6-311++G(d,p) empiricaldispersion=gd3bj scf=xqc pop=n
 pa geom=check\\CID_90401960_JID_5970_Energie_anion\\-1,2\C,0,0.9243925
 696,0.1862550294,-0.1966546965\C,0,0.6605304763,0.1464071949,-1.704688
 9\C,0,1.2141624603,-1.1080572573,-2.3979961345\C,0,0.6582775361,-2.443
 5754124,-1.8759623932\C,0,-0.8730446079,-2.5839357469,-1.871251037\C,0
 ,-1.5087715925,-2.3443333264,-3.2433542665\C,0,-1.1603075436,-3.312542
 2441,-4.3757976579\O,0,-1.8431049774,-4.5720760978,-4.2950846753\C,0,-
 1.2592043361,-5.5282560072,-3.5655583085\O,0,-0.1799746075,-5.46620747
 74,-3.0164245091\O,0,-2.0621459052,-6.6037518404,-3.5669058213\O,0,-2.
 9506611024,-2.1630088353,-3.1988988947\C,0,-3.7248485092,-3.0567575613
 ,-2.5746368898\O,0,-3.3963208631,-4.0310351964,-1.9345273193\O,0,-5.00
 56689258,-2.6737947473,-2.7595402599\H,0,0.4125341641,-0.6288243211,0.
 3266450043\H,0,0.5757387275,1.128448221,0.2401628658\H,0,1.996487036,0
 .0944494693,0.0169139988\H,0,-0.4199238572,0.2287735336,-1.8857310557\
 H,0,1.1107671101,1.0309482263,-2.1736299854\H,0,1.0366760188,-1.023152
 9989,-3.4794608313\H,0,2.3064246593,-1.124331131,-2.281556851\H,0,1.08
 88764613,-3.270206131,-2.4508677044\H,0,0.9988182781,-2.5971060863,-0.
 8450261613\H,0,-1.1394031263,-3.5693447631,-1.4952997937\H,0,-1.315786
 3869,-1.8491652009,-1.1873697247\H,0,-1.1802142566,-1.3632851772,-3.59
 96749094\H,0,-1.50429016,-2.8907262129,-5.3217704185\H,0,-0.0801311186
 ,-3.4715985422,-4.4141350204\H,0,-1.6113106606,-7.2677420013,-3.018178
 5275\H,0,-5.5401829606,-3.3386773585,-2.2927991221\\Version=ES64L-G16R
 evA.03\State=2-A\HF=-804.2649722\S2=0.750042\S2-1=0.\S2A=0.75\RMSD=6.4
 23e-12\Dipole=0.5598939,-0.1987812,-0.0808606\Quadrupole=-3.9887621,-1
 3.6100274,17.5987896,-13.3261156,-2.4683079,-5.5085534\PG=C01 [X(C9H16
 O6)]\\@


      SCIENCE SANS CONSCIENCE N'EST QUE RUINE DE L'AME.

                                                  -- RABELAIS
 Job cpu time:       0 days  1 hours  0 minutes 39.4 seconds.
 Elapsed time:       0 days  0 hours 15 minutes 13.3 seconds.
 File lengths (MBytes):  RWF=    244 Int=      0 D2E=      0 Chk=     24 Scr=      8
 Normal termination of Gaussian 16 at Thu Dec 10 18:25:57 2020.
