 Entering Gaussian System, Link 0=g16
 Initial command:
 /apps/brussel/CO7/skylake/software/Gaussian/G16.A.03-intel-2017b/g16/l1.exe "/scratch/brussel/102/vsc10255/3571707[10183].master01.hydra.brussel.vsc/Gau-145331.inp" -scrdir="/scratch/brussel/102/vsc10255/3571707[10183].master01.hydra.brussel.vsc/"
 Entering Link 1 = /apps/brussel/CO7/skylake/software/Gaussian/G16.A.03-intel-2017b/g16/l1.exe.bin PID=    145335.
  
 Copyright (c) 1988,1990,1992,1993,1995,1998,2003,2009,2016,
            Gaussian, Inc.  All Rights Reserved.
  
 This is part of the Gaussian(R) 16 program.  It is based on
 the Gaussian(R) 09 system (copyright 2009, Gaussian, Inc.),
 the Gaussian(R) 03 system (copyright 2003, Gaussian, Inc.),
 the Gaussian(R) 98 system (copyright 1998, Gaussian, Inc.),
 the Gaussian(R) 94 system (copyright 1995, Gaussian, Inc.),
 the Gaussian 92(TM) system (copyright 1992, Gaussian, Inc.),
 the Gaussian 90(TM) system (copyright 1990, Gaussian, Inc.),
 the Gaussian 88(TM) system (copyright 1988, Gaussian, Inc.),
 the Gaussian 86(TM) system (copyright 1986, Carnegie Mellon
 University), and the Gaussian 82(TM) system (copyright 1983,
 Carnegie Mellon University). Gaussian is a federally registered
 trademark of Gaussian, Inc.
  
 This software contains proprietary and confidential information,
 including trade secrets, belonging to Gaussian, Inc.
  
 This software is provided under written license and may be
 used, copied, transmitted, or stored only in accord with that
 written license.
  
 The following legend is applicable only to US Government
 contracts under FAR:
  
                    RESTRICTED RIGHTS LEGEND
  
 Use, reproduction and disclosure by the US Government is
 subject to restrictions as set forth in subparagraphs (a)
 and (c) of the Commercial Computer Software - Restricted
 Rights clause in FAR 52.227-19.
  
 Gaussian, Inc.
 340 Quinnipiac St., Bldg. 40, Wallingford CT 06492
  
  
 ---------------------------------------------------------------
 Warning -- This program may not be used in any manner that
 competes with the business of Gaussian, Inc. or will provide
 assistance to any competitor of Gaussian, Inc.  The licensee
 of this program is prohibited from giving any competitor of
 Gaussian, Inc. access to this program.  By using this program,
 the user acknowledges that Gaussian, Inc. is engaged in the
 business of creating and licensing software in the field of
 computational chemistry and represents and warrants to the
 licensee that it is not a competitor of Gaussian, Inc. and that
 it will not use this program in any manner prohibited above.
 ---------------------------------------------------------------
  

 Cite this work as:
 Gaussian 16, Revision A.03,
 M. J. Frisch, G. W. Trucks, H. B. Schlegel, G. E. Scuseria, 
 M. A. Robb, J. R. Cheeseman, G. Scalmani, V. Barone, 
 G. A. Petersson, H. Nakatsuji, X. Li, M. Caricato, A. V. Marenich, 
 J. Bloino, B. G. Janesko, R. Gomperts, B. Mennucci, H. P. Hratchian, 
 J. V. Ortiz, A. F. Izmaylov, J. L. Sonnenberg, D. Williams-Young, 
 F. Ding, F. Lipparini, F. Egidi, J. Goings, B. Peng, A. Petrone, 
 T. Henderson, D. Ranasinghe, V. G. Zakrzewski, J. Gao, N. Rega, 
 G. Zheng, W. Liang, M. Hada, M. Ehara, K. Toyota, R. Fukuda, 
 J. Hasegawa, M. Ishida, T. Nakajima, Y. Honda, O. Kitao, H. Nakai, 
 T. Vreven, K. Throssell, J. A. Montgomery, Jr., J. E. Peralta, 
 F. Ogliaro, M. J. Bearpark, J. J. Heyd, E. N. Brothers, K. N. Kudin, 
 V. N. Staroverov, T. A. Keith, R. Kobayashi, J. Normand, 
 K. Raghavachari, A. P. Rendell, J. C. Burant, S. S. Iyengar, 
 J. Tomasi, M. Cossi, J. M. Millam, M. Klene, C. Adamo, R. Cammi, 
 J. W. Ochterski, R. L. Martin, K. Morokuma, O. Farkas, 
 J. B. Foresman, and D. J. Fox, Gaussian, Inc., Wallingford CT, 2016.
 
 ******************************************
 Gaussian 16:  ES64L-G16RevA.03 25-Dec-2016
                13-Dec-2020 
 ******************************************
 %chk=JID_10183.chk
 %mem=8GB
 %nprocshared=4
 Will use up to    4 processors via shared memory.
 -----------------------------------------------------------
 # opt freq B3LYP/6-31G(d) empiricaldispersion=gd3bj scf=xqc
 -----------------------------------------------------------
 1/18=20,19=15,26=3,38=1/1,3;
 2/9=110,12=2,17=6,18=5,40=1/2;
 3/5=1,6=6,7=1,11=2,25=1,30=1,71=1,74=-5,124=41/1,2,3;
 4//1;
 5/5=2,8=3,13=1,38=5/2,8;
 6/7=2,8=2,9=2,10=2,28=1/1;
 7//1,2,3,16;
 1/18=20,19=15,26=3/3(2);
 2/9=110/2;
 99//99;
 2/9=110/2;
 3/5=1,6=6,7=1,11=2,25=1,30=1,71=1,74=-5,124=41/1,2,3;
 4/5=5,16=3,69=1/1;
 5/5=2,8=3,13=1,38=5/2,8;
 7//1,2,3,16;
 1/18=20,19=15,26=3/3(-5);
 2/9=110/2;
 6/7=2,8=2,9=2,10=2,19=2,28=1/1;
 99/9=1/99;
 -------------------------------
 CID_63848313_JID_10183_neutraal
 -------------------------------
 Symbolic Z-matrix:
 Charge =  0 Multiplicity = 1
 C                     1.01862  -0.08514   0.04904 
 C                     0.25058  -1.37205   0.38123 
 C                    -0.85798  -1.02089   1.39995 
 C                    -0.41568  -1.90626  -0.89429 
 N                     1.04281  -2.43523   1.02203 
 C                     2.44147  -2.60553   0.64073 
 C                     3.44885  -2.53487   1.82692 
 C                     3.21154  -3.59381   2.92446 
 C                     2.22983  -3.17588   4.02321 
 C                     2.43512  -1.73402   4.48865 
 N                     2.46189  -0.81501   3.34748 
 C                     3.58362  -1.13119   2.45188 
 C                     2.43718   0.60881   3.75375 
 C                     3.51698   1.02593   4.76533 
 O                     4.69687   0.6855    4.67507 
 N                     3.16995   1.83994   5.81058 
 C                     1.87765   2.42464   6.13657 
 C                     0.98769   1.50235   6.96849 
 C                     1.48198   1.3895    8.34542 
 N                     1.86899   1.31476   9.43698 
 H                     0.3247    0.70599  -0.26163 
 H                     1.7237   -0.21585  -0.77785 
 H                     1.56156   0.30196   0.91216 
 H                    -1.53169  -0.24962   1.01251 
 H                    -1.46579  -1.89965   1.64839 
 H                    -0.4309   -0.64051   2.33667 
 H                     0.32283  -2.15863  -1.66244 
 H                    -1.0152   -2.80132  -0.69214 
 H                    -1.09295  -1.15468  -1.32009 
 H                     1.03187  -2.25193   2.0241 
 H                     2.53635  -3.5985    0.18358 
 H                     2.77053  -1.90813  -0.13485 
 H                     4.42471  -2.77041   1.37794 
 H                     2.89168  -4.54424   2.48209 
 H                     4.17682  -3.79162   3.40893 
 H                     1.19721  -3.31211   3.68346 
 H                     2.34246  -3.84921   4.88139 
 H                     1.60681  -1.4731    5.15829 
 H                     3.35894  -1.67226   5.07647 
 H                     4.53659  -1.08743   2.99246 
 H                     3.65338  -0.39279   1.64426 
 H                     2.53853   1.26326   2.87963 
 H                     1.43956   0.80167   4.15524 
 H                     3.95612   2.0434    6.42177 
 H                     2.07891   3.35998   6.67188 
 H                     1.37159   2.68874   5.20254 
 H                    -0.02804   1.91356   6.99006 
 H                     0.92531   0.5083    6.51422 
 

 GradGradGradGradGradGradGradGradGradGradGradGradGradGradGradGradGradGrad
 Berny optimization.
 Initialization pass.
                           ----------------------------
                           !    Initial Parameters    !
                           ! (Angstroms and Degrees)  !
 --------------------------                            --------------------------
 ! Name  Definition              Value          Derivative Info.                !
 --------------------------------------------------------------------------------
 ! R1    R(1,2)                  1.535          estimate D2E/DX2                !
 ! R2    R(1,21)                 1.0972         estimate D2E/DX2                !
 ! R3    R(1,22)                 1.0945         estimate D2E/DX2                !
 ! R4    R(1,23)                 1.0907         estimate D2E/DX2                !
 ! R5    R(2,3)                  1.546          estimate D2E/DX2                !
 ! R6    R(2,4)                  1.535          estimate D2E/DX2                !
 ! R7    R(2,5)                  1.4726         estimate D2E/DX2                !
 ! R8    R(3,24)                 1.0949         estimate D2E/DX2                !
 ! R9    R(3,25)                 1.097          estimate D2E/DX2                !
 ! R10   R(3,26)                 1.0975         estimate D2E/DX2                !
 ! R11   R(4,27)                 1.0951         estimate D2E/DX2                !
 ! R12   R(4,28)                 1.0961         estimate D2E/DX2                !
 ! R13   R(4,29)                 1.0977         estimate D2E/DX2                !
 ! R14   R(5,6)                  1.4597         estimate D2E/DX2                !
 ! R15   R(5,30)                 1.0188         estimate D2E/DX2                !
 ! R16   R(6,7)                  1.5578         estimate D2E/DX2                !
 ! R17   R(6,31)                 1.0973         estimate D2E/DX2                !
 ! R18   R(6,32)                 1.0937         estimate D2E/DX2                !
 ! R19   R(7,8)                  1.5435         estimate D2E/DX2                !
 ! R20   R(7,12)                 1.5424         estimate D2E/DX2                !
 ! R21   R(7,33)                 1.0997         estimate D2E/DX2                !
 ! R22   R(8,9)                  1.5316         estimate D2E/DX2                !
 ! R23   R(8,34)                 1.096          estimate D2E/DX2                !
 ! R24   R(8,35)                 1.098          estimate D2E/DX2                !
 ! R25   R(9,10)                 1.529          estimate D2E/DX2                !
 ! R26   R(9,36)                 1.0956         estimate D2E/DX2                !
 ! R27   R(9,37)                 1.0966         estimate D2E/DX2                !
 ! R28   R(10,11)                1.4655         estimate D2E/DX2                !
 ! R29   R(10,38)                1.0966         estimate D2E/DX2                !
 ! R30   R(10,39)                1.0967         estimate D2E/DX2                !
 ! R31   R(11,12)                1.4698         estimate D2E/DX2                !
 ! R32   R(11,13)                1.4809         estimate D2E/DX2                !
 ! R33   R(12,40)                1.0965         estimate D2E/DX2                !
 ! R34   R(12,41)                1.0965         estimate D2E/DX2                !
 ! R35   R(13,14)                1.5373         estimate D2E/DX2                !
 ! R36   R(13,42)                1.0967         estimate D2E/DX2                !
 ! R37   R(13,43)                1.0925         estimate D2E/DX2                !
 ! R38   R(14,15)                1.2313         estimate D2E/DX2                !
 ! R39   R(14,16)                1.3695         estimate D2E/DX2                !
 ! R40   R(16,17)                1.4554         estimate D2E/DX2                !
 ! R41   R(16,44)                1.0164         estimate D2E/DX2                !
 ! R42   R(17,18)                1.528          estimate D2E/DX2                !
 ! R43   R(17,45)                1.0963         estimate D2E/DX2                !
 ! R44   R(17,46)                1.0946         estimate D2E/DX2                !
 ! R45   R(18,19)                1.4673         estimate D2E/DX2                !
 ! R46   R(18,47)                1.096          estimate D2E/DX2                !
 ! R47   R(18,48)                1.0947         estimate D2E/DX2                !
 ! R48   R(19,20)                1.1605         estimate D2E/DX2                !
 ! A1    A(2,1,21)             110.4455         estimate D2E/DX2                !
 ! A2    A(2,1,22)             112.6862         estimate D2E/DX2                !
 ! A3    A(2,1,23)             112.0462         estimate D2E/DX2                !
 ! A4    A(21,1,22)            106.2365         estimate D2E/DX2                !
 ! A5    A(21,1,23)            106.4382         estimate D2E/DX2                !
 ! A6    A(22,1,23)            108.6364         estimate D2E/DX2                !
 ! A7    A(1,2,3)              108.1162         estimate D2E/DX2                !
 ! A8    A(1,2,4)              109.2147         estimate D2E/DX2                !
 ! A9    A(1,2,5)              115.4841         estimate D2E/DX2                !
 ! A10   A(3,2,4)              108.3834         estimate D2E/DX2                !
 ! A11   A(3,2,5)              105.2491         estimate D2E/DX2                !
 ! A12   A(4,2,5)              110.1105         estimate D2E/DX2                !
 ! A13   A(2,3,24)             111.5951         estimate D2E/DX2                !
 ! A14   A(2,3,25)             111.382          estimate D2E/DX2                !
 ! A15   A(2,3,26)             111.2294         estimate D2E/DX2                !
 ! A16   A(24,3,25)            107.6675         estimate D2E/DX2                !
 ! A17   A(24,3,26)            107.2962         estimate D2E/DX2                !
 ! A18   A(25,3,26)            107.4547         estimate D2E/DX2                !
 ! A19   A(2,4,27)             111.7388         estimate D2E/DX2                !
 ! A20   A(2,4,28)             111.6135         estimate D2E/DX2                !
 ! A21   A(2,4,29)             110.601          estimate D2E/DX2                !
 ! A22   A(27,4,28)            108.0622         estimate D2E/DX2                !
 ! A23   A(27,4,29)            107.5659         estimate D2E/DX2                !
 ! A24   A(28,4,29)            107.0489         estimate D2E/DX2                !
 ! A25   A(2,5,6)              119.0813         estimate D2E/DX2                !
 ! A26   A(2,5,30)             106.9981         estimate D2E/DX2                !
 ! A27   A(6,5,30)             106.7518         estimate D2E/DX2                !
 ! A28   A(5,6,7)              114.5463         estimate D2E/DX2                !
 ! A29   A(5,6,31)             107.2937         estimate D2E/DX2                !
 ! A30   A(5,6,32)             113.5245         estimate D2E/DX2                !
 ! A31   A(7,6,31)             107.5998         estimate D2E/DX2                !
 ! A32   A(7,6,32)             108.4502         estimate D2E/DX2                !
 ! A33   A(31,6,32)            104.8083         estimate D2E/DX2                !
 ! A34   A(6,7,8)              114.2618         estimate D2E/DX2                !
 ! A35   A(6,7,12)             113.9726         estimate D2E/DX2                !
 ! A36   A(6,7,33)             104.6693         estimate D2E/DX2                !
 ! A37   A(8,7,12)             110.4679         estimate D2E/DX2                !
 ! A38   A(8,7,33)             106.2487         estimate D2E/DX2                !
 ! A39   A(12,7,33)            106.4278         estimate D2E/DX2                !
 ! A40   A(7,8,9)              114.9279         estimate D2E/DX2                !
 ! A41   A(7,8,34)             110.6588         estimate D2E/DX2                !
 ! A42   A(7,8,35)             107.5891         estimate D2E/DX2                !
 ! A43   A(9,8,34)             109.8229         estimate D2E/DX2                !
 ! A44   A(9,8,35)             107.2252         estimate D2E/DX2                !
 ! A45   A(34,8,35)            106.1658         estimate D2E/DX2                !
 ! A46   A(8,9,10)             112.9332         estimate D2E/DX2                !
 ! A47   A(8,9,36)             110.3495         estimate D2E/DX2                !
 ! A48   A(8,9,37)             109.15           estimate D2E/DX2                !
 ! A49   A(10,9,36)            109.7681         estimate D2E/DX2                !
 ! A50   A(10,9,37)            109.0877         estimate D2E/DX2                !
 ! A51   A(36,9,37)            105.2566         estimate D2E/DX2                !
 ! A52   A(9,10,11)            110.9031         estimate D2E/DX2                !
 ! A53   A(9,10,38)            107.9897         estimate D2E/DX2                !
 ! A54   A(9,10,39)            109.2303         estimate D2E/DX2                !
 ! A55   A(11,10,38)           109.8828         estimate D2E/DX2                !
 ! A56   A(11,10,39)           111.5106         estimate D2E/DX2                !
 ! A57   A(38,10,39)           107.1911         estimate D2E/DX2                !
 ! A58   A(10,11,12)           110.7035         estimate D2E/DX2                !
 ! A59   A(10,11,13)           112.8934         estimate D2E/DX2                !
 ! A60   A(12,11,13)           112.7514         estimate D2E/DX2                !
 ! A61   A(7,12,11)            112.0844         estimate D2E/DX2                !
 ! A62   A(7,12,40)            108.1808         estimate D2E/DX2                !
 ! A63   A(7,12,41)            108.6606         estimate D2E/DX2                !
 ! A64   A(11,12,40)           110.7503         estimate D2E/DX2                !
 ! A65   A(11,12,41)           110.6393         estimate D2E/DX2                !
 ! A66   A(40,12,41)           106.3169         estimate D2E/DX2                !
 ! A67   A(11,13,14)           115.4481         estimate D2E/DX2                !
 ! A68   A(11,13,42)           110.7055         estimate D2E/DX2                !
 ! A69   A(11,13,43)           106.6056         estimate D2E/DX2                !
 ! A70   A(14,13,42)           107.3172         estimate D2E/DX2                !
 ! A71   A(14,13,43)           110.5895         estimate D2E/DX2                !
 ! A72   A(42,13,43)           105.7807         estimate D2E/DX2                !
 ! A73   A(13,14,15)           123.3539         estimate D2E/DX2                !
 ! A74   A(13,14,16)           119.046          estimate D2E/DX2                !
 ! A75   A(15,14,16)           117.5863         estimate D2E/DX2                !
 ! A76   A(14,16,17)           129.4006         estimate D2E/DX2                !
 ! A77   A(14,16,44)           112.454          estimate D2E/DX2                !
 ! A78   A(17,16,44)           118.1452         estimate D2E/DX2                !
 ! A79   A(16,17,18)           113.3675         estimate D2E/DX2                !
 ! A80   A(16,17,45)           106.8051         estimate D2E/DX2                !
 ! A81   A(16,17,46)           108.4394         estimate D2E/DX2                !
 ! A82   A(18,17,45)           110.8575         estimate D2E/DX2                !
 ! A83   A(18,17,46)           109.9335         estimate D2E/DX2                !
 ! A84   A(45,17,46)           107.1973         estimate D2E/DX2                !
 ! A85   A(17,18,19)           111.17           estimate D2E/DX2                !
 ! A86   A(17,18,47)           108.9066         estimate D2E/DX2                !
 ! A87   A(17,18,48)           110.8152         estimate D2E/DX2                !
 ! A88   A(19,18,47)           108.8189         estimate D2E/DX2                !
 ! A89   A(19,18,48)           109.8018         estimate D2E/DX2                !
 ! A90   A(47,18,48)           107.2201         estimate D2E/DX2                !
 ! A91   L(18,19,20,44,-1)     180.0824         estimate D2E/DX2                !
 ! A92   L(18,19,20,44,-2)     179.2102         estimate D2E/DX2                !
 ! D1    D(21,1,2,3)           -52.7287         estimate D2E/DX2                !
 ! D2    D(21,1,2,4)            65.0089         estimate D2E/DX2                !
 ! D3    D(21,1,2,5)          -170.2771         estimate D2E/DX2                !
 ! D4    D(22,1,2,3)          -171.3661         estimate D2E/DX2                !
 ! D5    D(22,1,2,4)           -53.6284         estimate D2E/DX2                !
 ! D6    D(22,1,2,5)            71.0855         estimate D2E/DX2                !
 ! D7    D(23,1,2,3)            65.748          estimate D2E/DX2                !
 ! D8    D(23,1,2,4)          -176.5144         estimate D2E/DX2                !
 ! D9    D(23,1,2,5)           -51.8005         estimate D2E/DX2                !
 ! D10   D(1,2,3,24)            57.5861         estimate D2E/DX2                !
 ! D11   D(1,2,3,25)           177.9515         estimate D2E/DX2                !
 ! D12   D(1,2,3,26)           -62.2024         estimate D2E/DX2                !
 ! D13   D(4,2,3,24)           -60.6836         estimate D2E/DX2                !
 ! D14   D(4,2,3,25)            59.6817         estimate D2E/DX2                !
 ! D15   D(4,2,3,26)           179.5278         estimate D2E/DX2                !
 ! D16   D(5,2,3,24)          -178.4678         estimate D2E/DX2                !
 ! D17   D(5,2,3,25)           -58.1025         estimate D2E/DX2                !
 ! D18   D(5,2,3,26)            61.7436         estimate D2E/DX2                !
 ! D19   D(1,2,4,27)            61.5459         estimate D2E/DX2                !
 ! D20   D(1,2,4,28)          -177.3222         estimate D2E/DX2                !
 ! D21   D(1,2,4,29)           -58.255          estimate D2E/DX2                !
 ! D22   D(3,2,4,27)           179.1154         estimate D2E/DX2                !
 ! D23   D(3,2,4,28)           -59.7527         estimate D2E/DX2                !
 ! D24   D(3,2,4,29)            59.3145         estimate D2E/DX2                !
 ! D25   D(5,2,4,27)           -66.2493         estimate D2E/DX2                !
 ! D26   D(5,2,4,28)            54.8826         estimate D2E/DX2                !
 ! D27   D(5,2,4,29)           173.9498         estimate D2E/DX2                !
 ! D28   D(1,2,5,6)            -34.8682         estimate D2E/DX2                !
 ! D29   D(1,2,5,30)            86.1216         estimate D2E/DX2                !
 ! D30   D(3,2,5,6)           -154.0097         estimate D2E/DX2                !
 ! D31   D(3,2,5,30)           -33.0198         estimate D2E/DX2                !
 ! D32   D(4,2,5,6)             89.3796         estimate D2E/DX2                !
 ! D33   D(4,2,5,30)          -149.6305         estimate D2E/DX2                !
 ! D34   D(2,5,6,7)            124.0017         estimate D2E/DX2                !
 ! D35   D(2,5,6,31)          -116.6355         estimate D2E/DX2                !
 ! D36   D(2,5,6,32)            -1.3275         estimate D2E/DX2                !
 ! D37   D(30,5,6,7)             2.8878         estimate D2E/DX2                !
 ! D38   D(30,5,6,31)          122.2505         estimate D2E/DX2                !
 ! D39   D(30,5,6,32)         -122.4414         estimate D2E/DX2                !
 ! D40   D(5,6,7,8)             59.2719         estimate D2E/DX2                !
 ! D41   D(5,6,7,12)           -69.0575         estimate D2E/DX2                !
 ! D42   D(5,6,7,33)           175.0725         estimate D2E/DX2                !
 ! D43   D(31,6,7,8)           -59.9193         estimate D2E/DX2                !
 ! D44   D(31,6,7,12)          171.7513         estimate D2E/DX2                !
 ! D45   D(31,6,7,33)           55.8813         estimate D2E/DX2                !
 ! D46   D(32,6,7,8)          -172.7803         estimate D2E/DX2                !
 ! D47   D(32,6,7,12)           58.8903         estimate D2E/DX2                !
 ! D48   D(32,6,7,33)          -56.9798         estimate D2E/DX2                !
 ! D49   D(6,7,8,9)            -87.9864         estimate D2E/DX2                !
 ! D50   D(6,7,8,34)            37.1057         estimate D2E/DX2                !
 ! D51   D(6,7,8,35)           152.6794         estimate D2E/DX2                !
 ! D52   D(12,7,8,9)            42.0983         estimate D2E/DX2                !
 ! D53   D(12,7,8,34)          167.1904         estimate D2E/DX2                !
 ! D54   D(12,7,8,35)          -77.2359         estimate D2E/DX2                !
 ! D55   D(33,7,8,9)           157.1354         estimate D2E/DX2                !
 ! D56   D(33,7,8,34)          -77.7725         estimate D2E/DX2                !
 ! D57   D(33,7,8,35)           37.8012         estimate D2E/DX2                !
 ! D58   D(6,7,12,11)           78.2414         estimate D2E/DX2                !
 ! D59   D(6,7,12,40)         -159.3679         estimate D2E/DX2                !
 ! D60   D(6,7,12,41)          -44.3419         estimate D2E/DX2                !
 ! D61   D(8,7,12,11)          -51.9968         estimate D2E/DX2                !
 ! D62   D(8,7,12,40)           70.3939         estimate D2E/DX2                !
 ! D63   D(8,7,12,41)         -174.58           estimate D2E/DX2                !
 ! D64   D(33,7,12,11)        -166.9212         estimate D2E/DX2                !
 ! D65   D(33,7,12,40)         -44.5305         estimate D2E/DX2                !
 ! D66   D(33,7,12,41)          70.4956         estimate D2E/DX2                !
 ! D67   D(7,8,9,10)           -42.5346         estimate D2E/DX2                !
 ! D68   D(7,8,9,36)            80.7373         estimate D2E/DX2                !
 ! D69   D(7,8,9,37)          -164.0553         estimate D2E/DX2                !
 ! D70   D(34,8,9,10)         -168.0619         estimate D2E/DX2                !
 ! D71   D(34,8,9,36)          -44.79           estimate D2E/DX2                !
 ! D72   D(34,8,9,37)           70.4175         estimate D2E/DX2                !
 ! D73   D(35,8,9,10)           77.0018         estimate D2E/DX2                !
 ! D74   D(35,8,9,36)         -159.7263         estimate D2E/DX2                !
 ! D75   D(35,8,9,37)          -44.5189         estimate D2E/DX2                !
 ! D76   D(8,9,10,11)           51.2713         estimate D2E/DX2                !
 ! D77   D(8,9,10,38)          171.7215         estimate D2E/DX2                !
 ! D78   D(8,9,10,39)          -72.0222         estimate D2E/DX2                !
 ! D79   D(36,9,10,11)         -72.3222         estimate D2E/DX2                !
 ! D80   D(36,9,10,38)          48.1281         estimate D2E/DX2                !
 ! D81   D(36,9,10,39)         164.3844         estimate D2E/DX2                !
 ! D82   D(37,9,10,11)         172.8272         estimate D2E/DX2                !
 ! D83   D(37,9,10,38)         -66.7226         estimate D2E/DX2                !
 ! D84   D(37,9,10,39)          49.5337         estimate D2E/DX2                !
 ! D85   D(9,10,11,12)         -61.8689         estimate D2E/DX2                !
 ! D86   D(9,10,11,13)         170.6587         estimate D2E/DX2                !
 ! D87   D(38,10,11,12)        178.8111         estimate D2E/DX2                !
 ! D88   D(38,10,11,13)         51.3387         estimate D2E/DX2                !
 ! D89   D(39,10,11,12)         60.1021         estimate D2E/DX2                !
 ! D90   D(39,10,11,13)        -67.3703         estimate D2E/DX2                !
 ! D91   D(10,11,12,7)          63.2826         estimate D2E/DX2                !
 ! D92   D(10,11,12,40)        -57.6348         estimate D2E/DX2                !
 ! D93   D(10,11,12,41)       -175.264          estimate D2E/DX2                !
 ! D94   D(13,11,12,7)        -169.1671         estimate D2E/DX2                !
 ! D95   D(13,11,12,40)         69.9154         estimate D2E/DX2                !
 ! D96   D(13,11,12,41)        -47.7138         estimate D2E/DX2                !
 ! D97   D(10,11,13,14)         53.347          estimate D2E/DX2                !
 ! D98   D(10,11,13,42)        175.5062         estimate D2E/DX2                !
 ! D99   D(10,11,13,43)        -69.9047         estimate D2E/DX2                !
 ! D100  D(12,11,13,14)        -73.0395         estimate D2E/DX2                !
 ! D101  D(12,11,13,42)         49.1197         estimate D2E/DX2                !
 ! D102  D(12,11,13,43)        163.7088         estimate D2E/DX2                !
 ! D103  D(11,13,14,15)         44.4775         estimate D2E/DX2                !
 ! D104  D(11,13,14,16)       -136.9089         estimate D2E/DX2                !
 ! D105  D(42,13,14,15)        -79.4758         estimate D2E/DX2                !
 ! D106  D(42,13,14,16)         99.1378         estimate D2E/DX2                !
 ! D107  D(43,13,14,15)        165.5988         estimate D2E/DX2                !
 ! D108  D(43,13,14,16)        -15.7876         estimate D2E/DX2                !
 ! D109  D(13,14,16,17)         -0.8518         estimate D2E/DX2                !
 ! D110  D(13,14,16,44)        179.3361         estimate D2E/DX2                !
 ! D111  D(15,14,16,17)        177.8416         estimate D2E/DX2                !
 ! D112  D(15,14,16,44)         -1.9704         estimate D2E/DX2                !
 ! D113  D(14,16,17,18)         86.1693         estimate D2E/DX2                !
 ! D114  D(14,16,17,45)       -151.4427         estimate D2E/DX2                !
 ! D115  D(14,16,17,46)        -36.2119         estimate D2E/DX2                !
 ! D116  D(44,16,17,18)        -94.0277         estimate D2E/DX2                !
 ! D117  D(44,16,17,45)         28.3603         estimate D2E/DX2                !
 ! D118  D(44,16,17,46)        143.5911         estimate D2E/DX2                !
 ! D119  D(16,17,18,19)         72.1031         estimate D2E/DX2                !
 ! D120  D(16,17,18,47)       -168.0098         estimate D2E/DX2                !
 ! D121  D(16,17,18,48)        -50.3005         estimate D2E/DX2                !
 ! D122  D(45,17,18,19)        -48.0066         estimate D2E/DX2                !
 ! D123  D(45,17,18,47)         71.8805         estimate D2E/DX2                !
 ! D124  D(45,17,18,48)       -170.4102         estimate D2E/DX2                !
 ! D125  D(46,17,18,19)       -166.3489         estimate D2E/DX2                !
 ! D126  D(46,17,18,47)        -46.4618         estimate D2E/DX2                !
 ! D127  D(46,17,18,48)         71.2476         estimate D2E/DX2                !
 --------------------------------------------------------------------------------
 Trust Radius=3.00D-01 FncErr=1.00D-07 GrdErr=1.00D-06 EigMax=2.50D+02 EigMin=1.00D-04
 Number of steps in this run=    277 maximum allowed number of steps=    288.
 GradGradGradGradGradGradGradGradGradGradGradGradGradGradGradGradGradGrad

                          Input orientation:                          
 ---------------------------------------------------------------------
 Center     Atomic      Atomic             Coordinates (Angstroms)
 Number     Number       Type             X           Y           Z
 ---------------------------------------------------------------------
      1          6           0        1.018620   -0.085140    0.049040
      2          6           0        0.250580   -1.372050    0.381230
      3          6           0       -0.857980   -1.020890    1.399950
      4          6           0       -0.415680   -1.906260   -0.894290
      5          7           0        1.042810   -2.435230    1.022030
      6          6           0        2.441470   -2.605530    0.640730
      7          6           0        3.448850   -2.534870    1.826920
      8          6           0        3.211540   -3.593810    2.924460
      9          6           0        2.229830   -3.175880    4.023210
     10          6           0        2.435120   -1.734020    4.488650
     11          7           0        2.461890   -0.815010    3.347480
     12          6           0        3.583620   -1.131190    2.451880
     13          6           0        2.437180    0.608810    3.753750
     14          6           0        3.516980    1.025930    4.765330
     15          8           0        4.696870    0.685500    4.675070
     16          7           0        3.169950    1.839940    5.810580
     17          6           0        1.877650    2.424640    6.136570
     18          6           0        0.987690    1.502350    6.968490
     19          6           0        1.481980    1.389500    8.345420
     20          7           0        1.868990    1.314760    9.436980
     21          1           0        0.324700    0.705990   -0.261630
     22          1           0        1.723700   -0.215850   -0.777850
     23          1           0        1.561560    0.301960    0.912160
     24          1           0       -1.531690   -0.249620    1.012510
     25          1           0       -1.465790   -1.899650    1.648390
     26          1           0       -0.430900   -0.640510    2.336670
     27          1           0        0.322830   -2.158630   -1.662440
     28          1           0       -1.015200   -2.801320   -0.692140
     29          1           0       -1.092950   -1.154680   -1.320090
     30          1           0        1.031870   -2.251930    2.024100
     31          1           0        2.536350   -3.598500    0.183580
     32          1           0        2.770530   -1.908130   -0.134850
     33          1           0        4.424710   -2.770410    1.377940
     34          1           0        2.891680   -4.544240    2.482090
     35          1           0        4.176820   -3.791620    3.408930
     36          1           0        1.197210   -3.312110    3.683460
     37          1           0        2.342460   -3.849210    4.881390
     38          1           0        1.606810   -1.473100    5.158290
     39          1           0        3.358940   -1.672260    5.076470
     40          1           0        4.536590   -1.087430    2.992460
     41          1           0        3.653380   -0.392790    1.644260
     42          1           0        2.538530    1.263260    2.879630
     43          1           0        1.439560    0.801670    4.155240
     44          1           0        3.956120    2.043400    6.421770
     45          1           0        2.078910    3.359980    6.671880
     46          1           0        1.371590    2.688740    5.202540
     47          1           0       -0.028040    1.913560    6.990060
     48          1           0        0.925310    0.508300    6.514220
 ---------------------------------------------------------------------
                    Distance matrix (angstroms):
                    1          2          3          4          5
     1  C    0.000000
     2  C    1.535048   0.000000
     3  C    2.494436   1.545965   0.000000
     4  C    2.502712   1.535003   2.498609   0.000000
     5  N    2.543662   1.472618   2.399205   2.465621   0.000000
     6  C    2.954144   2.527610   3.738164   3.317917   1.459672
     7  C    3.881759   3.697445   4.585109   4.768095   2.539056
     8  C    5.038621   4.491272   5.050252   5.530588   3.108848
     9  C    5.178198   4.520537   4.589123   5.726470   3.311293
    10  C    4.943219   4.666276   4.570900   6.093666   3.801010
    11  N    3.673615   3.741500   3.854452   5.240596   3.169640
    12  C    3.667027   3.931254   4.565800   5.271811   3.193855
    13  C    4.027252   4.480950   4.365132   6.005719   4.321197
    14  C    5.451575   5.969925   5.886895   7.489650   5.666872
    15  O    5.960165   6.514604   6.670423   7.992068   6.036208
    16  N    6.444338   6.951075   6.622856   8.476204   6.762545
    17  C    6.640403   7.084218   6.464590   8.570242   7.104492
    18  C    7.099287   7.224784   6.386069   8.683973   7.132178
    19  C    8.439146   8.518851   7.715241   9.991766   8.273661
    20  N    9.529757   9.583570   8.802584  11.060281   9.249669
    21  H    1.097236   2.176468   2.672395   2.787879   3.468534
    22  H    1.094518   2.202350   3.472171   2.729101   2.937486
    23  H    1.090691   2.191544   2.800365   3.471163   2.788079
    24  H    2.731192   2.198829   1.094921   2.761489   3.377134
    25  H    3.467371   2.197722   1.096984   2.750999   2.640501
    26  H    2.764561   2.196204   1.097511   3.470080   2.668543
    27  H    2.777166   2.191008   3.473758   1.095053   2.793073
    28  H    3.473241   2.190236   2.751634   1.096094   2.703295
    29  H    2.734440   2.178718   2.733446   1.097667   3.418597
    30  H    2.931896   2.020798   2.340204   3.275956   1.018756
    31  H    3.829531   3.197013   4.432280   3.569308   2.070473
    32  H    2.535014   2.627521   4.038427   3.275467   2.145046
    33  H    4.536309   4.513558   5.564901   5.416563   3.417055
    34  H    5.414024   4.631610   5.257849   5.412717   3.161964
    35  H    5.916171   5.516942   6.087870   6.569881   4.166426
    36  H    4.863562   3.945208   3.832481   5.053081   2.806415
    37  H    6.266768   5.546506   5.510230   6.688862   4.310811
    38  H    5.326991   4.966878   4.517168   6.396235   4.283974
    39  H    5.768111   5.638910   5.632362   7.067707   4.731286
    40  H    4.695149   5.026869   5.625113   6.348408   4.231508
    41  H    3.095373   3.759421   4.561421   5.029123   3.372508
    42  H    3.484329   4.292036   4.352364   5.745928   4.400760
    43  H    4.221907   4.514630   4.023933   6.022670   4.522382
    44  H    7.332890   7.866667   7.601586   9.393465   7.596229
    45  H    7.540231   8.081286   7.457251   9.550036   8.159581
    46  H    5.863238   6.402477   5.761252   7.840899   6.621165
    47  H    7.298497   7.385763   6.367820   8.769508   7.461640
    48  H    6.493029   6.450158   5.627993   7.906603   6.232361
                    6          7          8          9         10
     6  C    0.000000
     7  C    1.557836   0.000000
     8  C    2.604828   1.543458   0.000000
     9  C    3.436752   2.592411   1.531559   0.000000
    10  C    3.945384   2.958685   2.551144   1.528967   0.000000
    11  N    3.245439   2.498822   2.909064   2.466611   1.465457
    12  C    2.599702   1.542419   2.535009   2.912487   2.414723
    13  C    4.474695   3.823464   4.353087   3.799932   2.455389
    14  C    5.599692   4.617163   4.982378   4.456759   2.977297
    15  O    5.673941   4.476639   4.856268   4.628333   3.317279
    16  N    6.857130   5.923369   6.152809   5.407122   3.880807
    17  C    7.471597   6.755627   6.951162   5.996344   4.507867
    18  C    7.683014   6.985141   6.875357   5.665988   4.326517
    19  C    8.731731   7.858759   7.563833   6.331151   5.053665
    20  N    9.647301   8.673443   8.264951   7.043079   5.839652
    21  H    4.032510   4.962411   6.080567   6.087552   5.742184
    22  H    2.870215   3.890864   5.227942   5.662872   5.526932
    23  H    3.049822   3.527925   4.684956   4.713872   4.207090
    24  H    4.634062   5.539983   6.110433   5.637051   5.479286
    25  H    4.096380   4.958736   5.135752   4.574510   4.828210
    26  H    3.871437   4.347517   4.725976   4.043761   3.747113
    27  H    3.161162   4.699914   5.607498   6.082603   6.517513
    28  H    3.709912   5.132680   5.619001   5.736292   6.315412
    29  H    4.294404   5.695309   6.518757   6.608856   6.820878
    30  H    2.006419   2.441460   2.713347   2.507037   2.882941
    31  H    1.097259   2.159753   2.822822   3.874961   4.692564
    32  H    1.093696   2.168286   3.520708   4.380526   4.638919
    33  H    2.122241   1.099711   2.131078   3.461121   3.835243
    34  H    2.711437   2.185693   1.096047   2.164603   3.483112
    35  H    3.475799   2.147584   1.098001   2.132427   2.903968
    36  H    3.362387   3.020054   2.170936   1.095579   2.161277
    37  H    4.420378   3.504479   2.156410   1.096600   2.153337
    38  H    4.731533   3.952024   3.473120   2.139163   1.096629
    39  H    4.624774   3.363295   2.888811   2.155254   1.096718
    40  H    3.496397   2.153310   2.835899   3.277989   2.659481
    41  H    2.715146   2.159561   3.475725   3.928293   3.372478
    42  H    4.470976   4.045080   4.903680   4.594457   3.403429
    43  H    4.996460   4.537711   4.896425   4.057445   2.744454
    44  H    7.571469   6.506191   6.675606   5.997837   4.507693
    45  H    8.490791   7.752395   7.980050   7.053772   5.553577
    46  H    7.069940   6.557127   6.931486   6.043274   4.604513
    47  H    8.175246   7.650837   7.573315   6.308928   5.062514
    48  H    6.818546   6.131877   5.911052   4.634661   3.377937
                   11         12         13         14         15
    11  N    0.000000
    12  C    1.469812   0.000000
    13  C    1.480854   2.456988   0.000000
    14  C    2.551974   3.163804   1.537287   0.000000
    15  O    3.001526   3.079328   2.441498   1.231333   0.000000
    16  N    3.690118   4.503288   2.506628   1.369522   2.225668
    17  C    4.314591   5.397333   3.047646   2.554230   3.620579
    18  C    4.544792   5.837307   3.637855   3.387949   4.436782
    19  C    5.549729   6.745708   4.754505   4.134060   4.929767
    20  N    6.478384   7.596989   5.755025   4.962218   5.573927
    21  H    4.461692   4.621572   4.538204   5.963501   6.594490
    22  H    4.233470   3.837747   4.660957   5.956905   6.275867
    23  H    2.826482   2.917770   2.989231   4.381178   4.912918
    24  H    4.660518   5.386590   4.899309   6.418703   7.285860
    25  H    4.414750   5.170364   5.094908   6.565236   7.336359
    26  H    3.069270   4.046036   3.434356   4.925563   5.789684
    27  H    5.610721   5.349394   6.439279   7.852404   8.208857
    28  H    5.688068   5.815784   6.581326   8.060551   8.578613
    29  H    5.876944   6.008212   6.427719   7.939701   8.535234
    30  H    2.420957   2.819660   3.626351   4.943124   5.393363
    31  H    4.214691   3.511350   5.518823   6.583268   6.572213
    32  H    3.662894   2.820625   4.644063   5.760005   5.794224
    33  H    3.399315   2.132562   4.584089   5.168228   4.784188
    34  H    3.852373   3.482615   5.327064   6.052353   5.951307
    35  H    3.435836   2.888896   4.744368   5.048168   4.681684
    36  H    2.819185   3.459502   4.112916   5.036900   5.404794
    37  H    3.401987   3.851056   4.599401   5.015970   5.113649
    38  H    2.107908   3.368877   2.645108   3.169908   3.800201
    39  H    2.128141   2.689184   2.793297   2.720664   2.740476
    40  H    2.122412   1.096491   2.804339   2.940912   2.449520
    41  H    2.121056   1.096518   2.632925   3.431100   3.381921
    42  H    2.131657   2.647371   1.096660   2.137652   2.866329
    43  H    2.076364   3.351772   1.092536   2.176735   3.300574
    44  H    4.455838   5.096745   3.388740   1.992958   2.333145
    45  H    5.350593   6.343750   4.026509   3.339277   4.241911
    46  H    4.111723   5.201065   2.749651   2.749325   3.917739
    47  H    5.187797   6.550547   4.272398   4.278373   5.402970
    48  H    3.760382   5.124173   3.148976   3.169118   4.199826
                   16         17         18         19         20
    16  N    0.000000
    17  C    1.455398   0.000000
    18  C    2.493388   1.527985   0.000000
    19  C    3.078563   2.471252   1.467308   0.000000
    20  N    3.888327   3.482042   2.627798   1.160546   0.000000
    21  H    6.800958   6.804585   7.303998   8.711360   9.839638
    22  H    7.051618   7.403046   7.968670   9.266587  10.329890
    23  H    5.380225   5.648021   6.200758   7.512818   8.590275
    24  H    7.035137   6.710533   6.700028   8.095708   9.218655
    25  H    7.266254   7.072612   6.774705   8.022348   9.061751
    26  H    5.584515   5.400351   5.296981   6.624585   7.715373
    27  H    8.940955   9.178692   9.398817  10.681298  11.732526
    28  H    9.018988   9.072514   9.012125  10.270169  11.307508
    29  H    8.830998   8.788502   8.949270  10.321105  11.427413
    30  H    5.970948   6.284748   6.208346   7.309015   8.268787
    31  H    7.851191   8.494127   8.628559   9.623278  10.498138
    32  H    7.039581   7.674688   8.078820   9.189652  10.140006
    33  H    6.517518   7.491370   7.830954   8.631934   9.389805
    34  H    7.205139   7.934026   7.766223   8.460211   9.151190
    35  H    6.204529   7.167154   7.132120   7.646901   8.230345
    36  H    5.912695   6.276229   5.832182   6.627224   7.413650
    37  H    5.823621   6.415039   5.901744   6.339086   6.902475
    38  H    3.720904   4.027749   3.537434   4.285774   5.113520
    39  H    3.593074   4.483595   4.390981   4.856273   5.491474
    40  H    4.287074   5.412026   5.925409   6.642289   7.376886
    41  H    4.751527   5.592135   6.248591   7.266160   8.174733
    42  H    3.053149   3.520401   4.379617   5.568401   6.591644
    43  H    2.610058   2.598389   2.934197   4.231424   5.323950
    44  H    1.016372   2.132304   3.066466   3.201466   3.738786
    45  H    2.059788   1.096323   2.174748   2.653272   3.445689
    46  H    2.079489   1.094650   2.161823   3.402632   4.479477
    47  H    3.409360   2.149721   1.096023   2.095662   3.153522
    48  H    2.703106   2.173000   1.094709   2.107057   3.175443
                   21         22         23         24         25
    21  H    0.000000
    22  H    1.753132   0.000000
    23  H    1.752383   1.774979   0.000000
    24  H    2.445978   3.715386   3.143645   0.000000
    25  H    3.693696   4.346800   3.814966   1.769544   0.000000
    26  H    3.022442   3.810889   2.624381   1.765767   1.769226
    27  H    3.188780   2.553298   3.770613   3.773449   3.771979
    28  H    3.779139   3.767436   4.340947   3.111875   2.548356
    29  H    2.567521   3.018103   3.761803   2.540207   3.083158
    30  H    3.804463   3.532021   2.835372   3.406523   2.550209
    31  H    4.859860   3.609303   4.085907   5.333955   4.587906
    32  H    3.582148   2.091199   2.728065   4.751441   4.596349
    33  H    5.619931   4.297518   4.225404   6.478165   5.960651
    34  H    6.456183   5.543135   5.264936   6.337951   5.164926
    35  H    6.967089   6.027691   5.461762   7.132719   6.206295
    36  H    5.698257   5.455942   4.568846   4.894866   3.637049
    37  H    7.160437   6.753604   5.796275   6.552428   5.362447
    38  H    5.980616   6.068945   4.602446   5.341777   4.684252
    39  H    6.584679   6.250456   4.946675   6.515976   5.922960
    40  H    5.616536   4.784061   3.887011   6.437868   6.204417
    41  H    3.989968   3.101869   2.322576   5.225376   5.336342
    42  H    3.883183   4.028508   2.397813   4.726694   5.249241
    43  H    4.556403   5.044944   3.283620   4.450875   4.692812
    44  H    7.722934   7.869081   6.254785   8.039533   8.229818
    45  H    7.628530   8.271107   6.541675   7.621949   8.090986
    46  H    5.906304   6.657754   4.913264   5.883821   6.460343
    47  H    7.360004   8.242779   6.485750   6.532336   6.718715
    48  H    6.805289   7.371303   5.641850   6.072899   5.932275
                   26         27         28         29         30
    26  H    0.000000
    27  H    4.343464   0.000000
    28  H    3.766191   1.773374   0.000000
    29  H    3.751610   1.769054   1.764027   0.000000
    30  H    2.198652   3.755266   3.445328   4.111256   0.000000
    31  H    4.710634   3.221907   3.743780   4.626564   2.732073
    32  H    4.238446   2.896121   3.929391   4.110834   2.793242
    33  H    5.388189   5.142335   5.820550   6.350946   3.492522
    34  H    5.128332   5.428375   5.327027   6.467068   2.987195
    35  H    5.684217   6.575613   6.690033   7.555631   3.765516
    36  H    3.406176   5.538385   4.929659   5.910571   1.976055
    37  H    4.945996   7.053983   6.590614   7.584253   3.526054
    38  H    3.578688   6.974304   6.547262   7.025632   3.280286
    39  H    4.788935   7.407255   7.326987   7.810454   3.881782
    40  H    5.030483   6.369563   6.880121   7.091850   3.817963
    41  H    4.149957   5.014481   5.749384   5.647610   3.236201
    42  H    3.568846   6.103201   6.473589   6.055719   3.918994
    43  H    2.980889   6.622376   6.519546   6.341936   3.745990
    44  H    6.567904   9.808787   9.939469   9.780451   6.807393
    45  H    6.410703  10.148880  10.087811   9.711562   7.361500
    46  H    4.748272   8.469052   8.401475   7.961817   5.884565
    47  H    5.323496   9.569305   9.067567   8.922260   6.567760
    48  H    4.539933   8.621674   8.163993   8.259255   5.271755
                   31         32         33         34         35
    31  H    0.000000
    32  H    1.735969   0.000000
    33  H    2.382883   2.401744   0.000000
    34  H    2.510743   3.716467   2.591486   0.000000
    35  H    3.623716   4.252477   2.286753   1.754153   0.000000
    36  H    3.758254   4.361879   4.003201   2.415091   3.030408
    37  H    4.708489   5.395711   4.215891   2.557606   2.352941
    38  H    5.488999   5.436987   4.890258   4.271398   3.878240
    39  H    5.322352   5.249735   4.002615   3.898385   2.818032
    40  H    4.265705   3.684099   2.334869   3.862090   2.759624
    41  H    3.695662   2.498182   2.513753   4.303102   3.865242
    42  H    5.559263   4.381624   4.699281   5.831793   5.340034
    43  H    6.028145   5.245891   5.420726   5.786781   5.398878
    44  H    8.530053   7.746579   6.988030   7.749265   6.570645
    45  H    9.525111   8.634981   8.432690   8.982852   8.135936
    46  H    8.128715   7.181642   7.331536   7.875755   7.285700
    47  H    9.126175   8.555796   8.559349   8.399389   7.940681
    48  H    7.716104   7.311231   7.026885   6.756689   6.221290
                   36         37         38         39         40
    36  H    0.000000
    37  H    1.742157   0.000000
    38  H    2.392667   2.502749   0.000000
    39  H    3.050026   2.410477   1.765310   0.000000
    40  H    4.071626   4.001211   3.663765   2.464139   0.000000
    41  H    4.325915   4.913691   4.207603   3.674752   1.755058
    42  H    4.835214   5.493891   3.680769   3.757187   3.087186
    43  H    4.147830   4.793037   2.491718   3.263896   3.809508
    44  H    6.617508   6.300756   4.413775   3.996572   4.679659
    45  H    7.363751   7.432882   5.086501   5.432058   6.273578
    46  H    6.192593   6.617440   4.168717   4.794140   5.400105
    47  H    6.304163   6.578395   4.183011   5.290706   6.769239
    48  H    4.762632   4.864395   2.495783   3.569947   5.290604
                   41         42         43         44         45
    41  H    0.000000
    42  H    2.347665   0.000000
    43  H    3.554259   1.745847   0.000000
    44  H    5.371338   3.894218   3.607232   0.000000
    45  H    6.468323   4.357596   3.645161   2.306481   0.000000
    46  H    5.231037   2.964735   2.159280   2.929638   1.763470
    47  H    6.888373   4.889356   3.380289   4.026580   2.575385
    48  H    5.654276   4.047553   2.432140   3.398660   3.080216
                   46         47         48
    46  H    0.000000
    47  H    2.398978   0.000000
    48  H    2.583406   1.763535   0.000000
 Stoichiometry    C15H28N4O
 Framework group  C1[X(C15H28N4O)]
 Deg. of freedom   138
 Full point group                 C1      NOp   1
 Largest Abelian subgroup         C1      NOp   1
 Largest concise Abelian subgroup C1      NOp   1
                         Standard orientation:                         
 ---------------------------------------------------------------------
 Center     Atomic      Atomic             Coordinates (Angstroms)
 Number     Number       Type             X           Y           Z
 ---------------------------------------------------------------------
      1          6           0        2.877481   -1.627715   -1.370208
      2          6           0        3.305418   -1.455963    0.093945
      3          6           0        2.431461   -2.389342    0.962860
      4          6           0        4.771268   -1.885542    0.245546
      5          7           0        3.111709   -0.109034    0.656849
      6          6           0        3.299787    1.053894   -0.205049
      7          6           0        2.071757    2.009526   -0.279639
      8          6           0        1.642047    2.597426    1.081238
      9          6           0        0.647168    1.740355    1.869474
     10          6           0       -0.458281    1.152079    0.992175
     11          7           0        0.107791    0.468182   -0.173763
     12          6           0        0.856088    1.411393   -1.016824
     13          6           0       -0.900999   -0.304031   -0.934655
     14          6           0       -2.148504    0.483950   -1.366011
     15          8           0       -2.100679    1.613991   -1.852734
     16          7           0       -3.381173   -0.097965   -1.233752
     17          6           0       -3.729610   -1.421491   -0.738722
     18          6           0       -3.886673   -1.478491    0.780100
     19          6           0       -5.114314   -0.800534    1.211687
     20          7           0       -6.093560   -0.275413    1.546635
     21          1           0        2.893365   -2.687945   -1.652322
     22          1           0        3.546586   -1.115178   -2.068473
     23          1           0        1.859027   -1.277625   -1.542824
     24          1           0        2.520261   -3.433959    0.647040
     25          1           0        2.718137   -2.335729    2.020365
     26          1           0        1.370415   -2.117068    0.895202
     27          1           0        5.440063   -1.267191   -0.362317
     28          1           0        5.104531   -1.823170    1.287883
     29          1           0        4.903198   -2.927747   -0.072692
     30          1           0        2.154708   -0.065914    1.003480
     31          1           0        4.142524    1.627665    0.200609
     32          1           0        3.601226    0.797423   -1.224621
     33          1           0        2.416513    2.859147   -0.886806
     34          1           0        2.518417    2.815524    1.702308
     35          1           0        1.156908    3.563132    0.887184
     36          1           0        1.171298    0.934586    2.395133
     37          1           0        0.192060    2.351258    2.658274
     38          1           0       -1.030778    0.441164    1.599992
     39          1           0       -1.146972    1.951868    0.694126
     40          1           0        0.212270    2.237545   -1.341270
     41          1           0        1.207899    0.917830   -1.930594
     42          1           0       -0.457411   -0.734490   -1.840524
     43          1           0       -1.181127   -1.154136   -0.308168
     44          1           0       -4.133801    0.513554   -1.538068
     45          1           0       -4.661133   -1.711782   -1.238641
     46          1           0       -2.956320   -2.126218   -1.060653
     47          1           0       -3.933519   -2.527808    1.093158
     48          1           0       -3.020849   -1.030146    1.277819
 ---------------------------------------------------------------------
 Rotational constants (GHZ):           0.5263603           0.1674282           0.1544164
 Standard basis: 6-31G(d) (6D, 7F)
 There are   356 symmetry adapted cartesian basis functions of A   symmetry.
 There are   356 symmetry adapted basis functions of A   symmetry.
   356 basis functions,   672 primitive gaussians,   356 cartesian basis functions
    77 alpha electrons       77 beta electrons
       nuclear repulsion energy      1671.8138526414 Hartrees.
 NAtoms=   48 NActive=   48 NUniq=   48 SFac= 1.00D+00 NAtFMM=   60 NAOKFM=F Big=F
 Integral buffers will be    131072 words long.
 Raffenetti 2 integral format.
 Two-electron integral symmetry is turned on.
 Nuclear repulsion after empirical dispersion term =     1671.7189870465 Hartrees.
 One-electron integrals computed using PRISM.
 NBasis=   356 RedAO= T EigKep=  1.37D-03  NBF=   356
 NBsUse=   356 1.00D-06 EigRej= -1.00D+00 NBFU=   356
 ExpMin= 1.61D-01 ExpMax= 5.48D+03 ExpMxC= 8.25D+02 IAcc=3 IRadAn=         5 AccDes= 0.00D+00
 Harris functional with IExCor=  402 and IRadAn=       5 diagonalized for initial guess.
 HarFok:  IExCor=  402 AccDes= 0.00D+00 IRadAn=         5 IDoV= 1 UseB2=F ITyADJ=14
 ICtDFT=  3500011 ScaDFX=  1.000000  1.000000  1.000000  1.000000
 FoFCou: FMM=F IPFlag=           0 FMFlag=      100000 FMFlg1=           0
         NFxFlg=           0 DoJE=T BraDBF=F KetDBF=T FulRan=T
         wScrn=  0.000000 ICntrl=       500 IOpCl=  0 I1Cent=   200000004 NGrid=           0
         NMat0=    1 NMatS0=      1 NMatT0=    0 NMatD0=    1 NMtDS0=    0 NMtDT0=    0
 Petite list used in FoFCou.
 Requested convergence on RMS density matrix=1.00D-08 within  32 cycles.
 Requested convergence on MAX density matrix=1.00D-06.
 Requested convergence on             energy=1.00D-06.
 No special actions if energy rises.
 Integral accuracy reduced to 1.0D-05 until final iterations.
 Initial convergence to 1.0D-05 achieved.  Increase integral accuracy.
 SCF Done:  E(RB3LYP) =  -882.750681315     A.U. after   15 cycles
            NFock= 15  Conv=0.82D-08     -V/T= 2.0096
 QCSCF skips out because SCF is already converged.

 **********************************************************************

            Population analysis using the SCF density.

 **********************************************************************

 Orbital symmetries:
       Occupied  (A) (A) (A) (A) (A) (A) (A) (A) (A) (A) (A) (A)
                 (A) (A) (A) (A) (A) (A) (A) (A) (A) (A) (A) (A)
                 (A) (A) (A) (A) (A) (A) (A) (A) (A) (A) (A) (A)
                 (A) (A) (A) (A) (A) (A) (A) (A) (A) (A) (A) (A)
                 (A) (A) (A) (A) (A) (A) (A) (A) (A) (A) (A) (A)
                 (A) (A) (A) (A) (A) (A) (A) (A) (A) (A) (A) (A)
                 (A) (A) (A) (A) (A)
       Virtual   (A) (A) (A) (A) (A) (A) (A) (A) (A) (A) (A) (A)
                 (A) (A) (A) (A) (A) (A) (A) (A) (A) (A) (A) (A)
                 (A) (A) (A) (A) (A) (A) (A) (A) (A) (A) (A) (A)
                 (A) (A) (A) (A) (A) (A) (A) (A) (A) (A) (A) (A)
                 (A) (A) (A) (A) (A) (A) (A) (A) (A) (A) (A) (A)
                 (A) (A) (A) (A) (A) (A) (A) (A) (A) (A) (A) (A)
                 (A) (A) (A) (A) (A) (A) (A) (A) (A) (A) (A) (A)
                 (A) (A) (A) (A) (A) (A) (A) (A) (A) (A) (A) (A)
                 (A) (A) (A) (A) (A) (A) (A) (A) (A) (A) (A) (A)
                 (A) (A) (A) (A) (A) (A) (A) (A) (A) (A) (A) (A)
                 (A) (A) (A) (A) (A) (A) (A) (A) (A) (A) (A) (A)
                 (A) (A) (A) (A) (A) (A) (A) (A) (A) (A) (A) (A)
                 (A) (A) (A) (A) (A) (A) (A) (A) (A) (A) (A) (A)
                 (A) (A) (A) (A) (A) (A) (A) (A) (A) (A) (A) (A)
                 (A) (A) (A) (A) (A) (A) (A) (A) (A) (A) (A) (A)
                 (A) (A) (A) (A) (A) (A) (A) (A) (A) (A) (A) (A)
                 (A) (A) (A) (A) (A) (A) (A) (A) (A) (A) (A) (A)
                 (A) (A) (A) (A) (A) (A) (A) (A) (A) (A) (A) (A)
                 (A) (A) (A) (A) (A) (A) (A) (A) (A) (A) (A) (A)
                 (A) (A) (A) (A) (A) (A) (A) (A) (A) (A) (A) (A)
                 (A) (A) (A) (A) (A) (A) (A) (A) (A) (A) (A) (A)
                 (A) (A) (A) (A) (A) (A) (A) (A) (A) (A) (A) (A)
                 (A) (A) (A) (A) (A) (A) (A) (A) (A) (A) (A) (A)
                 (A) (A) (A)
 The electronic state is 1-A.
 Alpha  occ. eigenvalues --  -19.12000 -14.37519 -14.34578 -14.34060 -14.29257
 Alpha  occ. eigenvalues --  -10.29808 -10.26666 -10.25575 -10.24071 -10.23608
 Alpha  occ. eigenvalues --  -10.21321 -10.21159 -10.20064 -10.19166 -10.18544
 Alpha  occ. eigenvalues --  -10.18386 -10.17958 -10.16783 -10.16598 -10.15999
 Alpha  occ. eigenvalues --   -1.04122  -0.94017  -0.93176  -0.91324  -0.89125
 Alpha  occ. eigenvalues --   -0.81551  -0.80487  -0.77366  -0.75087  -0.73130
 Alpha  occ. eigenvalues --   -0.69599  -0.68452  -0.67589  -0.66023  -0.63515
 Alpha  occ. eigenvalues --   -0.61046  -0.58591  -0.54606  -0.54214  -0.53506
 Alpha  occ. eigenvalues --   -0.53205  -0.49767  -0.49431  -0.48049  -0.47330
 Alpha  occ. eigenvalues --   -0.46730  -0.45790  -0.45246  -0.44615  -0.44074
 Alpha  occ. eigenvalues --   -0.42987  -0.42521  -0.41671  -0.41489  -0.40379
 Alpha  occ. eigenvalues --   -0.40097  -0.39621  -0.38708  -0.38268  -0.37547
 Alpha  occ. eigenvalues --   -0.36822  -0.36628  -0.35946  -0.35638  -0.35012
 Alpha  occ. eigenvalues --   -0.34336  -0.33956  -0.33759  -0.32403  -0.31892
 Alpha  occ. eigenvalues --   -0.31795  -0.30644  -0.30033  -0.27045  -0.26569
 Alpha  occ. eigenvalues --   -0.22343  -0.19531
 Alpha virt. eigenvalues --    0.00192   0.01465   0.02346   0.05692   0.06896
 Alpha virt. eigenvalues --    0.08358   0.08931   0.09776   0.10307   0.11049
 Alpha virt. eigenvalues --    0.12036   0.12626   0.12924   0.13395   0.13527
 Alpha virt. eigenvalues --    0.14324   0.15445   0.15638   0.15987   0.16348
 Alpha virt. eigenvalues --    0.16663   0.17332   0.17787   0.18181   0.18423
 Alpha virt. eigenvalues --    0.18763   0.19542   0.20157   0.20394   0.20890
 Alpha virt. eigenvalues --    0.21553   0.21768   0.22224   0.22701   0.23137
 Alpha virt. eigenvalues --    0.23849   0.24175   0.24767   0.25101   0.25994
 Alpha virt. eigenvalues --    0.26624   0.26964   0.27568   0.28402   0.30803
 Alpha virt. eigenvalues --    0.31391   0.31734   0.32607   0.33005   0.35853
 Alpha virt. eigenvalues --    0.39034   0.46654   0.49073   0.49557   0.50755
 Alpha virt. eigenvalues --    0.51003   0.51590   0.52124   0.52692   0.53321
 Alpha virt. eigenvalues --    0.53962   0.54560   0.55742   0.56976   0.57528
 Alpha virt. eigenvalues --    0.58170   0.58595   0.60048   0.60640   0.62620
 Alpha virt. eigenvalues --    0.63452   0.64002   0.65046   0.65893   0.66568
 Alpha virt. eigenvalues --    0.66794   0.67107   0.68226   0.68891   0.69586
 Alpha virt. eigenvalues --    0.69655   0.71057   0.72206   0.72646   0.72978
 Alpha virt. eigenvalues --    0.73895   0.75876   0.76286   0.77103   0.79624
 Alpha virt. eigenvalues --    0.79965   0.80870   0.81065   0.81720   0.81977
 Alpha virt. eigenvalues --    0.82424   0.83279   0.83642   0.84336   0.84768
 Alpha virt. eigenvalues --    0.84993   0.86600   0.87522   0.88125   0.88456
 Alpha virt. eigenvalues --    0.89064   0.89206   0.89655   0.90204   0.90716
 Alpha virt. eigenvalues --    0.91368   0.92187   0.92369   0.92622   0.93651
 Alpha virt. eigenvalues --    0.94100   0.94366   0.95190   0.95609   0.95966
 Alpha virt. eigenvalues --    0.96758   0.98238   0.98693   0.99222   1.00403
 Alpha virt. eigenvalues --    1.00870   1.01356   1.02522   1.04611   1.05233
 Alpha virt. eigenvalues --    1.06042   1.08702   1.10334   1.11877   1.12507
 Alpha virt. eigenvalues --    1.13195   1.16614   1.18012   1.19391   1.21095
 Alpha virt. eigenvalues --    1.22623   1.24649   1.27209   1.30360   1.32625
 Alpha virt. eigenvalues --    1.33879   1.36923   1.38867   1.40301   1.41759
 Alpha virt. eigenvalues --    1.43155   1.44454   1.46153   1.48443   1.49663
 Alpha virt. eigenvalues --    1.49890   1.51285   1.52273   1.53125   1.55605
 Alpha virt. eigenvalues --    1.56851   1.58996   1.59766   1.63057   1.64527
 Alpha virt. eigenvalues --    1.66591   1.69505   1.70856   1.72171   1.73439
 Alpha virt. eigenvalues --    1.74103   1.74487   1.75754   1.76848   1.77846
 Alpha virt. eigenvalues --    1.79585   1.81075   1.82116   1.82533   1.83644
 Alpha virt. eigenvalues --    1.84683   1.87240   1.87739   1.88094   1.88971
 Alpha virt. eigenvalues --    1.89962   1.91241   1.92742   1.93242   1.93845
 Alpha virt. eigenvalues --    1.94899   1.96112   1.97362   1.98396   1.99524
 Alpha virt. eigenvalues --    2.00669   2.01769   2.03319   2.04279   2.04780
 Alpha virt. eigenvalues --    2.05049   2.06944   2.09121   2.09686   2.11121
 Alpha virt. eigenvalues --    2.12293   2.13695   2.14585   2.17124   2.18552
 Alpha virt. eigenvalues --    2.19112   2.20071   2.21874   2.22403   2.23266
 Alpha virt. eigenvalues --    2.25707   2.26697   2.27324   2.27941   2.28443
 Alpha virt. eigenvalues --    2.30090   2.30651   2.31844   2.32493   2.34624
 Alpha virt. eigenvalues --    2.36667   2.37121   2.40254   2.42572   2.43021
 Alpha virt. eigenvalues --    2.44517   2.46229   2.48746   2.52634   2.55306
 Alpha virt. eigenvalues --    2.55654   2.58023   2.59222   2.60852   2.61421
 Alpha virt. eigenvalues --    2.63243   2.65357   2.69605   2.70694   2.73016
 Alpha virt. eigenvalues --    2.74396   2.74678   2.75741   2.77265   2.78368
 Alpha virt. eigenvalues --    2.82334   2.85977   2.87614   2.88665   2.88983
 Alpha virt. eigenvalues --    2.93084   3.01306   3.11365   3.19255   3.89932
 Alpha virt. eigenvalues --    4.02442   4.03255   4.06503   4.12520   4.13874
 Alpha virt. eigenvalues --    4.18472   4.22000   4.27726   4.29408   4.32585
 Alpha virt. eigenvalues --    4.35022   4.39502   4.44207   4.48850   4.57204
 Alpha virt. eigenvalues --    4.59254   4.64814   4.66217   4.70230
          Condensed to atoms (all electrons):
               1          2          3          4          5          6
     1  C    5.242191   0.369368  -0.060359  -0.088635  -0.068693  -0.008669
     2  C    0.369368   4.600150   0.383178   0.387230   0.330358  -0.035649
     3  C   -0.060359   0.383178   5.204173  -0.058415  -0.053385   0.005751
     4  C   -0.088635   0.387230  -0.058415   5.183923  -0.078401  -0.002088
     5  N   -0.068693   0.330358  -0.053385  -0.078401   7.015360   0.316375
     6  C   -0.008669  -0.035649   0.005751  -0.002088   0.316375   4.910956
     7  C    0.000862   0.001575  -0.000151  -0.000078  -0.034401   0.372598
     8  C    0.000072  -0.000191   0.000036  -0.000022  -0.002496  -0.046049
     9  C   -0.000044   0.000182  -0.000102   0.000003  -0.002216  -0.002346
    10  C    0.000012  -0.000013   0.000130  -0.000001  -0.000303   0.000219
    11  N   -0.001846   0.001538  -0.003109   0.000009  -0.008820  -0.000141
    12  C   -0.001533   0.001244  -0.000043   0.000003  -0.000980  -0.040225
    13  C   -0.000561   0.000062  -0.000097  -0.000001  -0.000115  -0.000087
    14  C    0.000013   0.000001  -0.000002   0.000000  -0.000007   0.000003
    15  O    0.000000  -0.000000  -0.000000  -0.000000   0.000000  -0.000003
    16  N    0.000000  -0.000000   0.000000   0.000000   0.000000  -0.000000
    17  C    0.000000   0.000000  -0.000000  -0.000000  -0.000000   0.000000
    18  C   -0.000000   0.000000   0.000000   0.000000  -0.000000   0.000000
    19  C    0.000000  -0.000000   0.000000   0.000000   0.000000  -0.000000
    20  N    0.000000  -0.000000   0.000000   0.000000   0.000000  -0.000000
    21  H    0.352442  -0.023281  -0.007138  -0.000168   0.004417   0.000400
    22  H    0.366140  -0.028495   0.005850  -0.005486  -0.002082  -0.001728
    23  H    0.359062  -0.025384  -0.004940   0.005859  -0.000992  -0.000146
    24  H   -0.003795  -0.026543   0.361806  -0.003604   0.004460  -0.000204
    25  H    0.006657  -0.026928   0.362900  -0.008132   0.001078   0.000071
    26  H   -0.006142  -0.026775   0.356836   0.005773  -0.006233   0.000102
    27  H   -0.005162  -0.026746   0.005686   0.365583  -0.003294   0.002220
    28  H    0.006210  -0.023729  -0.005944   0.361647   0.002461  -0.000077
    29  H    0.000610  -0.028487  -0.005988   0.353255   0.005079  -0.000126
    30  H    0.000211  -0.038955  -0.010593   0.007072   0.287030  -0.050347
    31  H   -0.000602   0.003176  -0.000211   0.001319  -0.059665   0.371638
    32  H    0.007129  -0.012907   0.000545  -0.001440  -0.043327   0.355582
    33  H   -0.000056  -0.000099   0.000002   0.000008   0.004300  -0.036902
    34  H   -0.000001  -0.000015   0.000001   0.000002  -0.000132  -0.006081
    35  H    0.000001   0.000001  -0.000000  -0.000000  -0.000099   0.005337
    36  H    0.000056  -0.000130  -0.000004  -0.000025   0.000592   0.001457
    37  H    0.000000  -0.000004  -0.000001   0.000000   0.000135  -0.000099
    38  H    0.000002  -0.000007   0.000046   0.000000   0.000101  -0.000032
    39  H   -0.000002   0.000004  -0.000006   0.000000  -0.000079   0.000116
    40  H    0.000009   0.000014  -0.000005   0.000000  -0.000180   0.005029
    41  H    0.000733  -0.000396   0.000063  -0.000001  -0.000157  -0.007500
    42  H    0.000255  -0.000028   0.000042   0.000001   0.000063  -0.000041
    43  H    0.000045  -0.000049   0.000270   0.000000   0.000050  -0.000014
    44  H   -0.000000   0.000000  -0.000000   0.000000  -0.000000   0.000000
    45  H    0.000000  -0.000000  -0.000000  -0.000000   0.000000  -0.000000
    46  H   -0.000000   0.000000  -0.000000  -0.000000   0.000000   0.000000
    47  H   -0.000000  -0.000000   0.000000  -0.000000  -0.000000   0.000000
    48  H    0.000000  -0.000000  -0.000000  -0.000000   0.000000  -0.000000
               7          8          9         10         11         12
     1  C    0.000862   0.000072  -0.000044   0.000012  -0.001846  -0.001533
     2  C    0.001575  -0.000191   0.000182  -0.000013   0.001538   0.001244
     3  C   -0.000151   0.000036  -0.000102   0.000130  -0.003109  -0.000043
     4  C   -0.000078  -0.000022   0.000003  -0.000001   0.000009   0.000003
     5  N   -0.034401  -0.002496  -0.002216  -0.000303  -0.008820  -0.000980
     6  C    0.372598  -0.046049  -0.002346   0.000219  -0.000141  -0.040225
     7  C    5.013393   0.375559  -0.034652  -0.014161  -0.040149   0.342715
     8  C    0.375559   5.046636   0.373179  -0.040272  -0.013890  -0.048776
     9  C   -0.034652   0.373179   5.050683   0.374460  -0.045318  -0.015438
    10  C   -0.014161  -0.040272   0.374460   4.965508   0.300001  -0.042943
    11  N   -0.040149  -0.013890  -0.045318   0.300001   6.849719   0.287488
    12  C    0.342715  -0.048776  -0.015438  -0.042943   0.287488   5.018567
    13  C    0.004011   0.000411   0.004968  -0.048041   0.328432  -0.046837
    14  C    0.000118  -0.000077  -0.000007  -0.006453  -0.040702  -0.005444
    15  O    0.000336   0.000004   0.000050  -0.003068   0.000129  -0.001636
    16  N    0.000004  -0.000000   0.000005   0.000602   0.001987   0.000159
    17  C   -0.000000  -0.000000   0.000001  -0.000018   0.000092  -0.000008
    18  C    0.000000  -0.000000   0.000009  -0.000655   0.000140  -0.000005
    19  C   -0.000000   0.000000   0.000000   0.000001   0.000002   0.000000
    20  N   -0.000000   0.000000   0.000000  -0.000000   0.000000   0.000000
    21  H   -0.000017  -0.000000   0.000000  -0.000000   0.000038   0.000060
    22  H   -0.000049  -0.000001   0.000001  -0.000001   0.000066  -0.000185
    23  H   -0.000993  -0.000029  -0.000000  -0.000061   0.003719  -0.001370
    24  H    0.000004  -0.000000   0.000001  -0.000002   0.000020   0.000001
    25  H   -0.000002   0.000010  -0.000068   0.000004   0.000034  -0.000001
    26  H   -0.000060  -0.000023  -0.000175  -0.000050   0.006139  -0.000155
    27  H    0.000000   0.000001   0.000000  -0.000000   0.000000  -0.000001
    28  H    0.000003   0.000002  -0.000001   0.000000   0.000000  -0.000000
    29  H    0.000002   0.000000  -0.000000   0.000000   0.000000   0.000000
    30  H   -0.009276  -0.004253   0.006325  -0.003412   0.019561  -0.002444
    31  H   -0.040760  -0.010133   0.000233  -0.000006  -0.000145   0.005740
    32  H   -0.022305   0.006095  -0.000204  -0.000024  -0.000067  -0.008932
    33  H    0.359143  -0.041616   0.005495   0.000048   0.003930  -0.037810
    34  H   -0.035384   0.371789  -0.032977   0.004674  -0.000027   0.004765
    35  H   -0.036663   0.369563  -0.043932  -0.002112  -0.000737  -0.000205
    36  H   -0.002676  -0.037132   0.363508  -0.035531  -0.001534   0.000172
    37  H    0.004456  -0.032247   0.364899  -0.033028   0.004000  -0.000015
    38  H    0.000239   0.004477  -0.027224   0.366610  -0.043459   0.005731
    39  H   -0.001358  -0.004860  -0.045474   0.352866  -0.046972  -0.007343
    40  H   -0.041304  -0.004445  -0.001184  -0.008254  -0.045761   0.361512
    41  H   -0.028160   0.005101   0.000226   0.005477  -0.040766   0.366037
    42  H    0.000331   0.000011  -0.000145   0.005324  -0.031476  -0.003859
    43  H   -0.000126   0.000011   0.000040  -0.002387  -0.046680   0.006435
    44  H   -0.000000  -0.000000  -0.000000  -0.000024  -0.000140  -0.000009
    45  H    0.000000  -0.000000  -0.000000  -0.000001  -0.000005   0.000000
    46  H    0.000000  -0.000000  -0.000000   0.000026  -0.000066   0.000002
    47  H   -0.000000   0.000000  -0.000000   0.000010  -0.000003  -0.000000
    48  H    0.000000   0.000001  -0.000041   0.000987  -0.000341   0.000011
              13         14         15         16         17         18
     1  C   -0.000561   0.000013   0.000000   0.000000   0.000000  -0.000000
     2  C    0.000062   0.000001  -0.000000  -0.000000   0.000000   0.000000
     3  C   -0.000097  -0.000002  -0.000000   0.000000  -0.000000   0.000000
     4  C   -0.000001   0.000000  -0.000000   0.000000  -0.000000   0.000000
     5  N   -0.000115  -0.000007   0.000000   0.000000  -0.000000  -0.000000
     6  C   -0.000087   0.000003  -0.000003  -0.000000   0.000000   0.000000
     7  C    0.004011   0.000118   0.000336   0.000004  -0.000000   0.000000
     8  C    0.000411  -0.000077   0.000004  -0.000000  -0.000000  -0.000000
     9  C    0.004968  -0.000007   0.000050   0.000005   0.000001   0.000009
    10  C   -0.048041  -0.006453  -0.003068   0.000602  -0.000018  -0.000655
    11  N    0.328432  -0.040702   0.000129   0.001987   0.000092   0.000140
    12  C   -0.046837  -0.005444  -0.001636   0.000159  -0.000008  -0.000005
    13  C    5.212892   0.265427  -0.080658  -0.102938   0.006633  -0.002008
    14  C    0.265427   4.465669   0.569559   0.258353  -0.018913  -0.001628
    15  O   -0.080658   0.569559   8.088568  -0.101755   0.003736  -0.000025
    16  N   -0.102938   0.258353  -0.101755   7.117561   0.259713  -0.066782
    17  C    0.006633  -0.018913   0.003736   0.259713   4.937501   0.332174
    18  C   -0.002008  -0.001628  -0.000025  -0.066782   0.332174   5.240296
    19  C    0.000151  -0.000203  -0.000003  -0.003123  -0.032930   0.300440
    20  N    0.000001  -0.000003   0.000000  -0.000917  -0.000894  -0.090087
    21  H   -0.000013  -0.000000   0.000000  -0.000000  -0.000000   0.000000
    22  H    0.000008  -0.000000   0.000000  -0.000000  -0.000000   0.000000
    23  H   -0.000083   0.000147  -0.000003  -0.000001   0.000001  -0.000000
    24  H   -0.000000  -0.000000   0.000000  -0.000000   0.000000  -0.000000
    25  H    0.000002  -0.000000   0.000000  -0.000000   0.000000  -0.000000
    26  H    0.000022   0.000065   0.000000  -0.000001  -0.000002   0.000001
    27  H   -0.000000  -0.000000   0.000000  -0.000000   0.000000  -0.000000
    28  H    0.000000  -0.000000   0.000000  -0.000000  -0.000000  -0.000000
    29  H    0.000000   0.000000  -0.000000  -0.000000   0.000000  -0.000000
    30  H   -0.000030   0.000048  -0.000000  -0.000000   0.000000   0.000000
    31  H    0.000006  -0.000000   0.000000   0.000000  -0.000000   0.000000
    32  H   -0.000013   0.000001   0.000000  -0.000000   0.000000  -0.000000
    33  H   -0.000138  -0.000002  -0.000001  -0.000000   0.000000  -0.000000
    34  H    0.000009   0.000001  -0.000000   0.000000  -0.000000   0.000000
    35  H   -0.000051   0.000007  -0.000010  -0.000000   0.000000   0.000000
    36  H   -0.000146   0.000008  -0.000001   0.000000   0.000000   0.000000
    37  H   -0.000142   0.000005   0.000000  -0.000000  -0.000000   0.000000
    38  H   -0.002635  -0.002276   0.000139   0.000037  -0.000085  -0.000876
    39  H   -0.010340   0.012308   0.004812  -0.001498  -0.000011   0.000102
    40  H   -0.006817   0.005419   0.011317   0.000061  -0.000006   0.000001
    41  H   -0.004689  -0.001674   0.000402   0.000006  -0.000001   0.000000
    42  H    0.361862  -0.036798  -0.000613   0.003313  -0.000593  -0.000013
    43  H    0.346607  -0.037580   0.003129   0.001781   0.000342  -0.001571
    44  H    0.007486  -0.004307   0.011758   0.278238  -0.028193   0.000639
    45  H   -0.000128   0.002299  -0.000100  -0.030749   0.379077  -0.044108
    46  H    0.000702  -0.005448   0.000008  -0.037015   0.380025  -0.047563
    47  H   -0.000004   0.000054   0.000000   0.004715  -0.027421   0.352926
    48  H    0.000155   0.001317  -0.000053  -0.002323  -0.032958   0.364323
              19         20         21         22         23         24
     1  C    0.000000   0.000000   0.352442   0.366140   0.359062  -0.003795
     2  C   -0.000000  -0.000000  -0.023281  -0.028495  -0.025384  -0.026543
     3  C    0.000000   0.000000  -0.007138   0.005850  -0.004940   0.361806
     4  C    0.000000   0.000000  -0.000168  -0.005486   0.005859  -0.003604
     5  N    0.000000   0.000000   0.004417  -0.002082  -0.000992   0.004460
     6  C   -0.000000  -0.000000   0.000400  -0.001728  -0.000146  -0.000204
     7  C   -0.000000  -0.000000  -0.000017  -0.000049  -0.000993   0.000004
     8  C    0.000000   0.000000  -0.000000  -0.000001  -0.000029  -0.000000
     9  C    0.000000   0.000000   0.000000   0.000001  -0.000000   0.000001
    10  C    0.000001  -0.000000  -0.000000  -0.000001  -0.000061  -0.000002
    11  N    0.000002   0.000000   0.000038   0.000066   0.003719   0.000020
    12  C    0.000000   0.000000   0.000060  -0.000185  -0.001370   0.000001
    13  C    0.000151   0.000001  -0.000013   0.000008  -0.000083  -0.000000
    14  C   -0.000203  -0.000003  -0.000000  -0.000000   0.000147  -0.000000
    15  O   -0.000003   0.000000   0.000000   0.000000  -0.000003   0.000000
    16  N   -0.003123  -0.000917  -0.000000  -0.000000  -0.000001  -0.000000
    17  C   -0.032930  -0.000894  -0.000000  -0.000000   0.000001   0.000000
    18  C    0.300440  -0.090087   0.000000   0.000000  -0.000000  -0.000000
    19  C    4.596677   0.854596  -0.000000  -0.000000  -0.000000  -0.000000
    20  N    0.854596   6.693792  -0.000000  -0.000000  -0.000000  -0.000000
    21  H   -0.000000  -0.000000   0.596624  -0.031745  -0.029495   0.003431
    22  H   -0.000000  -0.000000  -0.031745   0.579456  -0.031763  -0.000032
    23  H   -0.000000  -0.000000  -0.029495  -0.031763   0.568935   0.000102
    24  H   -0.000000  -0.000000   0.003431  -0.000032   0.000102   0.584169
    25  H    0.000000  -0.000000  -0.000049  -0.000192  -0.000103  -0.028778
    26  H   -0.000000  -0.000000   0.000433  -0.000049   0.003113  -0.029774
    27  H   -0.000000  -0.000000  -0.000059   0.004133  -0.000036  -0.000049
    28  H   -0.000000  -0.000000  -0.000125  -0.000014  -0.000197   0.000030
    29  H   -0.000000  -0.000000   0.001246  -0.000015  -0.000031   0.003166
    30  H   -0.000000  -0.000000  -0.000073  -0.000248   0.001869   0.000221
    31  H    0.000000   0.000000   0.000006  -0.000077   0.000077   0.000004
    32  H    0.000000  -0.000000  -0.000415   0.004551  -0.000770   0.000002
    33  H    0.000000  -0.000000   0.000001   0.000010   0.000047  -0.000000
    34  H   -0.000000   0.000000  -0.000000  -0.000000   0.000000  -0.000000
    35  H   -0.000000  -0.000000  -0.000000   0.000000  -0.000000   0.000000
    36  H   -0.000000  -0.000000  -0.000001  -0.000000  -0.000007  -0.000001
    37  H   -0.000000  -0.000000  -0.000000   0.000000   0.000000   0.000000
    38  H    0.000028   0.000000  -0.000000  -0.000000  -0.000008  -0.000000
    39  H   -0.000007  -0.000000   0.000000   0.000000   0.000011   0.000000
    40  H   -0.000000  -0.000000  -0.000000   0.000004   0.000161   0.000000
    41  H    0.000000   0.000000  -0.000028   0.000370   0.001653  -0.000000
    42  H   -0.000004  -0.000000   0.000015  -0.000025   0.002936   0.000000
    43  H    0.000187   0.000001   0.000001  -0.000001  -0.000132  -0.000008
    44  H    0.002020   0.000216   0.000000  -0.000000   0.000000   0.000000
    45  H   -0.005423   0.000082  -0.000000   0.000000  -0.000000   0.000000
    46  H    0.003746  -0.000059   0.000000   0.000000   0.000000   0.000000
    47  H   -0.032037  -0.001407  -0.000000   0.000000   0.000000   0.000000
    48  H   -0.030193  -0.000636  -0.000000  -0.000000  -0.000000   0.000000
              25         26         27         28         29         30
     1  C    0.006657  -0.006142  -0.005162   0.006210   0.000610   0.000211
     2  C   -0.026928  -0.026775  -0.026746  -0.023729  -0.028487  -0.038955
     3  C    0.362900   0.356836   0.005686  -0.005944  -0.005988  -0.010593
     4  C   -0.008132   0.005773   0.365583   0.361647   0.353255   0.007072
     5  N    0.001078  -0.006233  -0.003294   0.002461   0.005079   0.287030
     6  C    0.000071   0.000102   0.002220  -0.000077  -0.000126  -0.050347
[...]
   500    H   29  S      Ryd( 4S)     0.00004       1.36641
   501    H   29  px     Ryd( 2p)     0.00009       2.13626
   502    H   29  py     Ryd( 2p)     0.00012       2.54370
   503    H   29  pz     Ryd( 2p)     0.00007       1.91009
 
   504    H   30  S      Val( 1S)     0.30412       0.20216
   505    H   30  S      Ryd( 2S)     0.00271       0.75721
   506    H   30  S      Ryd( 3S)     0.00091       1.74908
   507    H   30  S      Ryd( 4S)     0.00036       2.17407
   508    H   30  px     Ryd( 2p)     0.00031       2.86923
   509    H   30  py     Ryd( 2p)     0.00016       2.14091
   510    H   30  pz     Ryd( 2p)     0.00032       1.94942
 
   511    H   31  S      Val( 1S)     0.41061       0.12326
   512    H   31  S      Ryd( 2S)     0.00042       0.54116
   513    H   31  S      Ryd( 3S)     0.00056       1.25143
   514    H   31  S      Ryd( 4S)     0.00006       1.57188
   515    H   31  px     Ryd( 2p)     0.00019       2.71347
   516    H   31  py     Ryd( 2p)     0.00009       2.14792
   517    H   31  pz     Ryd( 2p)     0.00007       1.99841
 
   518    H   32  S      Val( 1S)     0.41963       0.11294
   519    H   32  S      Ryd( 2S)     0.00042       0.64220
   520    H   32  S      Ryd( 4S)     0.00083       1.58277
   521    H   32  S      Ryd( 3S)     0.00006       1.19426
   522    H   32  px     Ryd( 2p)     0.00009       2.02238
   523    H   32  py     Ryd( 2p)     0.00009       2.05395
   524    H   32  pz     Ryd( 2p)     0.00014       2.76936
 
   525    H   33  S      Val( 1S)     0.39963       0.13067
   526    H   33  S      Ryd( 2S)     0.00008       0.40026
   527    H   33  S      Ryd( 4S)     0.00034       1.74144
   528    H   33  S      Ryd( 3S)     0.00002       1.41002
   529    H   33  px     Ryd( 2p)     0.00008       2.07387
   530    H   33  py     Ryd( 2p)     0.00012       2.34344
   531    H   33  pz     Ryd( 2p)     0.00013       2.43367
 
   532    H   34  S      Val( 1S)     0.40087       0.13110
   533    H   34  S      Ryd( 2S)     0.00015       0.59378
   534    H   34  S      Ryd( 3S)     0.00047       1.22003
   535    H   34  S      Ryd( 4S)     0.00006       1.49133
   536    H   34  px     Ryd( 2p)     0.00014       2.68724
   537    H   34  py     Ryd( 2p)     0.00008       2.04978
   538    H   34  pz     Ryd( 2p)     0.00008       1.98339
 
   539    H   35  S      Val( 1S)     0.40448       0.12583
   540    H   35  S      Ryd( 2S)     0.00055       0.54230
   541    H   35  S      Ryd( 4S)     0.00023       1.90716
   542    H   35  S      Ryd( 3S)     0.00004       1.00592
   543    H   35  px     Ryd( 2p)     0.00008       2.14761
   544    H   35  py     Ryd( 2p)     0.00014       2.69972
   545    H   35  pz     Ryd( 2p)     0.00008       1.90724
 
   546    H   36  S      Val( 1S)     0.38947       0.15712
   547    H   36  S      Ryd( 2S)     0.00060       0.51453
   548    H   36  S      Ryd( 4S)     0.00070       2.09548
   549    H   36  S      Ryd( 3S)     0.00005       0.88066
   550    H   36  px     Ryd( 2p)     0.00010       2.20703
   551    H   36  py     Ryd( 2p)     0.00012       2.46298
   552    H   36  pz     Ryd( 2p)     0.00007       2.18534
 
   553    H   37  S      Val( 1S)     0.40434       0.12704
   554    H   37  S      Ryd( 2S)     0.00009       0.47819
   555    H   37  S      Ryd( 4S)     0.00038       1.46940
   556    H   37  S      Ryd( 3S)     0.00007       1.46714
   557    H   37  px     Ryd( 2p)     0.00009       1.94019
   558    H   37  py     Ryd( 2p)     0.00010       2.26813
   559    H   37  pz     Ryd( 2p)     0.00014       2.53342
 
   560    H   38  S      Val( 1S)     0.40212       0.12779
   561    H   38  S      Ryd( 2S)     0.00043       0.66098
   562    H   38  S      Ryd( 4S)     0.00036       1.39766
   563    H   38  S      Ryd( 3S)     0.00002       1.28922
   564    H   38  px     Ryd( 2p)     0.00011       2.16524
   565    H   38  py     Ryd( 2p)     0.00009       2.19145
   566    H   38  pz     Ryd( 2p)     0.00011       2.42656
 
   567    H   39  S      Val( 1S)     0.40631       0.13758
   568    H   39  S      Ryd( 2S)     0.00036       0.57939
   569    H   39  S      Ryd( 4S)     0.00060       1.95857
   570    H   39  S      Ryd( 3S)     0.00002       0.98922
   571    H   39  px     Ryd( 2p)     0.00014       2.37861
   572    H   39  py     Ryd( 2p)     0.00009       2.53306
   573    H   39  pz     Ryd( 2p)     0.00007       2.01855
 
   574    H   40  S      Val( 1S)     0.40008       0.14350
   575    H   40  S      Ryd( 2S)     0.00038       0.57499
   576    H   40  S      Ryd( 4S)     0.00058       2.02772
   577    H   40  S      Ryd( 3S)     0.00001       0.91441
   578    H   40  px     Ryd( 2p)     0.00016       2.27076
   579    H   40  py     Ryd( 2p)     0.00009       2.52750
   580    H   40  pz     Ryd( 2p)     0.00005       2.14619
 
   581    H   41  S      Val( 1S)     0.40256       0.12395
   582    H   41  S      Ryd( 2S)     0.00057       0.63015
   583    H   41  S      Ryd( 4S)     0.00037       1.49494
   584    H   41  S      Ryd( 3S)     0.00003       1.33567
   585    H   41  px     Ryd( 2p)     0.00009       1.97599
   586    H   41  py     Ryd( 2p)     0.00009       2.25094
   587    H   41  pz     Ryd( 2p)     0.00013       2.56496
 
   588    H   42  S      Val( 1S)     0.38844       0.11226
   589    H   42  S      Ryd( 2S)     0.00122       0.74499
   590    H   42  S      Ryd( 4S)     0.00035       1.73722
   591    H   42  S      Ryd( 3S)     0.00002       0.96386
   592    H   42  px     Ryd( 2p)     0.00008       2.08268
   593    H   42  py     Ryd( 2p)     0.00011       2.35265
   594    H   42  pz     Ryd( 2p)     0.00012       2.45560
 
   595    H   43  S      Val( 1S)     0.38823       0.10944
   596    H   43  S      Ryd( 2S)     0.00172       0.79350
   597    H   43  S      Ryd( 4S)     0.00039       1.69579
   598    H   43  S      Ryd( 3S)     0.00002       0.95120
   599    H   43  px     Ryd( 2p)     0.00007       2.06778
   600    H   43  py     Ryd( 2p)     0.00010       2.30224
   601    H   43  pz     Ryd( 2p)     0.00013       2.52257
 
   602    H   44  S      Val( 1S)     0.30167       0.16014
   603    H   44  S      Ryd( 2S)     0.00064       0.79476
   604    H   44  S      Ryd( 3S)     0.00077       0.81322
   605    H   44  S      Ryd( 4S)     0.00020       2.19218
   606    H   44  px     Ryd( 2p)     0.00017       2.53851
   607    H   44  py     Ryd( 2p)     0.00015       2.27040
   608    H   44  pz     Ryd( 2p)     0.00024       1.79148
 
   609    H   45  S      Val( 1S)     0.39580       0.10305
   610    H   45  S      Ryd( 2S)     0.00101       0.35103
   611    H   45  S      Ryd( 4S)     0.00041       1.49993
   612    H   45  S      Ryd( 3S)     0.00003       1.32338
   613    H   45  px     Ryd( 2p)     0.00009       2.27232
   614    H   45  py     Ryd( 2p)     0.00006       1.98895
   615    H   45  pz     Ryd( 2p)     0.00013       2.34421
 
   616    H   46  S      Val( 1S)     0.38072       0.09923
   617    H   46  S      Ryd( 2S)     0.00532       0.52725
   618    H   46  S      Ryd( 4S)     0.00033       1.66278
   619    H   46  S      Ryd( 3S)     0.00002       1.07999
   620    H   46  px     Ryd( 2p)     0.00012       2.55951
   621    H   46  py     Ryd( 2p)     0.00010       2.17011
   622    H   46  pz     Ryd( 2p)     0.00007       1.92155
 
   623    H   47  S      Val( 1S)     0.36388       0.10217
   624    H   47  S      Ryd( 2S)     0.00484       0.34662
   625    H   47  S      Ryd( 4S)     0.00037       1.50645
   626    H   47  S      Ryd( 3S)     0.00002       1.19726
   627    H   47  px     Ryd( 2p)     0.00008       1.94386
   628    H   47  py     Ryd( 2p)     0.00015       2.77165
   629    H   47  pz     Ryd( 2p)     0.00005       1.88215
 
   630    H   48  S      Val( 1S)     0.37574       0.10294
   631    H   48  S      Ryd( 2S)     0.00170       0.57475
   632    H   48  S      Ryd( 4S)     0.00059       1.56561
   633    H   48  S      Ryd( 3S)     0.00002       1.09295
   634    H   48  px     Ryd( 2p)     0.00011       2.27194
   635    H   48  py     Ryd( 2p)     0.00006       1.98125
   636    H   48  pz     Ryd( 2p)     0.00011       2.37289

 WARNING:  Population inversion found on atom  C    1
           Population inversion found on atom  C    2
           Population inversion found on atom  C    4
           Population inversion found on atom  C    6
           Population inversion found on atom  C    7
           Population inversion found on atom  C   13
           Population inversion found on atom  C   14
           Population inversion found on atom  O   15
           Population inversion found on atom  C   17
           Population inversion found on atom  C   18
           Population inversion found on atom  C   19
           Population inversion found on atom  N   20
           Population inversion found on atom  H   21
           Population inversion found on atom  H   22
           Population inversion found on atom  H   23
           Population inversion found on atom  H   24
           Population inversion found on atom  H   25
           Population inversion found on atom  H   26
           Population inversion found on atom  H   27
           Population inversion found on atom  H   28
           Population inversion found on atom  H   29
           Population inversion found on atom  H   31
           Population inversion found on atom  H   32
           Population inversion found on atom  H   33
           Population inversion found on atom  H   34
           Population inversion found on atom  H   35
           Population inversion found on atom  H   36
           Population inversion found on atom  H   37
           Population inversion found on atom  H   38
           Population inversion found on atom  H   39
           Population inversion found on atom  H   40
           Population inversion found on atom  H   41
           Population inversion found on atom  H   42
           Population inversion found on atom  H   43
           Population inversion found on atom  H   44
           Population inversion found on atom  H   45
           Population inversion found on atom  H   46
           Population inversion found on atom  H   47
           Population inversion found on atom  H   48


 Summary of Natural Population Analysis:                  
                                                          
                                       Natural Population 
                Natural  -----------------------------------------------
    Atom  No    Charge         Core      Valence    Rydberg      Total
 -----------------------------------------------------------------------
      C    1   -0.29555      0.99962     2.28885    0.00707     3.29555
      C    2    0.05653      0.99960     1.93191    0.01196     2.94347
      C    3   -0.28411      0.99962     2.27707    0.00743     3.28411
      C    4   -0.28865      0.99962     2.28354    0.00549     3.28865
      N    5   -0.36589      0.99971     2.85470    0.01148     3.86589
      C    6   -0.08156      0.99960     2.07222    0.00974     3.08156
      C    7   -0.11403      0.99958     2.10386    0.01058     3.11403
      C    8   -0.18694      0.99961     2.17936    0.00797     3.18694
      C    9   -0.19912      0.99962     2.19193    0.00757     3.19912
      C   10   -0.08597      0.99961     2.07535    0.01102     3.08597
      N   11   -0.29216      0.99972     2.77805    0.01439     3.79216
      C   12   -0.08844      0.99959     2.07677    0.01208     3.08844
      C   13   -0.12774      0.99956     2.11646    0.01172     3.12774
      C   14    0.34229      0.99968     1.63550    0.02253     2.65771
      O   15   -0.32307      0.99987     3.31758    0.00561     4.32307
      N   16   -0.32348      0.99968     2.81411    0.00969     3.82348
      C   17   -0.08529      0.99961     2.07318    0.01250     3.08529
      C   18   -0.25219      0.99954     2.24279    0.00985     3.25219
      C   19    0.16194      0.99966     1.82209    0.01631     2.83806
      N   20   -0.18612      0.99979     2.67504    0.01129     3.68612
      H   21    0.09830      0.00000     0.40091    0.00079     0.40170
      H   22    0.09723      0.00000     0.40190    0.00086     0.40277
      H   23    0.10372      0.00000     0.39485    0.00143     0.39628
      H   24    0.09628      0.00000     0.40301    0.00072     0.40372
      H   25    0.10116      0.00000     0.39792    0.00092     0.39884
      H   26    0.10344      0.00000     0.39534    0.00121     0.39656
      H   27    0.09815      0.00000     0.40111    0.00074     0.40185
      H   28    0.10182      0.00000     0.39734    0.00084     0.39818
      H   29    0.09861      0.00000     0.40074    0.00066     0.40139
      H   30    0.19111      0.00000     0.30412    0.00477     0.30889
      H   31    0.08801      0.00000     0.41061    0.00138     0.41199
      H   32    0.07873      0.00000     0.41963    0.00164     0.42127
      H   33    0.09961      0.00000     0.39963    0.00076     0.40039
      H   34    0.09813      0.00000     0.40087    0.00099     0.40187
      H   35    0.09439      0.00000     0.40448    0.00113     0.40561
      H   36    0.10888      0.00000     0.38947    0.00165     0.39112
      H   37    0.09479      0.00000     0.40434    0.00087     0.40521
      H   38    0.09675      0.00000     0.40212    0.00113     0.40325
      H   39    0.09241      0.00000     0.40631    0.00128     0.40759
      H   40    0.09864      0.00000     0.40008    0.00128     0.40136
      H   41    0.09617      0.00000     0.40256    0.00127     0.40383
      H   42    0.10966      0.00000     0.38844    0.00190     0.39034
      H   43    0.10934      0.00000     0.38823    0.00243     0.39066
      H   44    0.19615      0.00000     0.30167    0.00217     0.30385
      H   45    0.10247      0.00000     0.39580    0.00173     0.39753
      H   46    0.11332      0.00000     0.38072    0.00596     0.38668
      H   47    0.13061      0.00000     0.36388    0.00551     0.36939
      H   48    0.12167      0.00000     0.37574    0.00259     0.37833
 =======================================================================
   * Total *   -0.00000     19.99290    56.74222    0.26489    77.00000

                                 Natural Population      
 --------------------------------------------------------
   Core                      19.99290 ( 99.9645% of  20)
   Valence                   56.74222 ( 99.5477% of  57)
   Natural Minimal Basis     76.73511 ( 99.6560% of  77)
   Natural Rydberg Basis      0.26489 (  0.3440% of  77)
 --------------------------------------------------------

    Atom  No          Natural Electron Configuration
 ----------------------------------------------------------------------------
      C    1      [core]2S( 0.54)2p( 1.75)
      C    2      [core]2S( 0.45)2p( 1.48)3p( 0.01)
      C    3      [core]2S( 0.54)2p( 1.74)
      C    4      [core]2S( 0.54)2p( 1.75)
      N    5      [core]2S( 0.66)2p( 2.19)3p( 0.01)
      C    6      [core]2S( 0.49)2p( 1.58)
      C    7      [core]2S( 0.48)2p( 1.62)4p( 0.01)
      C    8      [core]2S( 0.51)2p( 1.67)
      C    9      [core]2S( 0.51)2p( 1.68)
      C   10      [core]2S( 0.50)2p( 1.58)
      N   11      [core]2S( 0.63)2p( 2.14)3p( 0.01)
      C   12      [core]2S( 0.50)2p( 1.58)3p( 0.01)
      C   13      [core]2S( 0.50)2p( 1.61)
      C   14      [core]2S( 0.40)2p( 1.24)3p( 0.01)3d( 0.01)
      O   15      [core]2S( 0.85)2p( 2.47)
      N   16      [core]2S( 0.64)2p( 2.18)3p( 0.01)
      C   17      [core]2S( 0.50)2p( 1.57)
      C   18      [core]2S( 0.53)2p( 1.72)
      C   19      [core]2S( 0.43)2p( 1.39)3p( 0.01)
      N   20      [core]2S( 0.79)2p( 1.88)3d( 0.01)
      H   21            1S( 0.40)
      H   22            1S( 0.40)
      H   23            1S( 0.39)
      H   24            1S( 0.40)
      H   25            1S( 0.40)
      H   26            1S( 0.40)
      H   27            1S( 0.40)
      H   28            1S( 0.40)
      H   29            1S( 0.40)
      H   30            1S( 0.30)
      H   31            1S( 0.41)
      H   32            1S( 0.42)
      H   33            1S( 0.40)
      H   34            1S( 0.40)
      H   35            1S( 0.40)
      H   36            1S( 0.39)
      H   37            1S( 0.40)
      H   38            1S( 0.40)
      H   39            1S( 0.41)
      H   40            1S( 0.40)
      H   41            1S( 0.40)
      H   42            1S( 0.39)
      H   43            1S( 0.39)
      H   44            1S( 0.30)
      H   45            1S( 0.40)
      H   46            1S( 0.38)2S( 0.01)
      H   47            1S( 0.36)
      H   48            1S( 0.38)


 NBO analysis skipped by request.
 1\1\GINC-NODE370\SP\UB3LYP\6-311++G(d,p)\C15H28N4O1(1-,2)\VSC10255\13-
 Dec-2020\0\\# B3LYP/6-311++G(d,p) empiricaldispersion=gd3bj scf=xqc po
 p=npa geom=check\\CID_63848313_JID_10183_Energie_anion\\-1,2\C,0,0.441
 9884796,0.0991600576,-0.1756602519\C,0,0.1088629093,-1.3550294701,0.22
 47287199\C,0,-1.2343910141,-1.3754620614,0.9691256162\C,0,0.0086427944
 ,-2.2325201178,-1.0310212039\N,0,1.0969633021,-1.9322430843,1.15130271
 04\C,0,2.461398892,-2.1082793984,0.6625955598\C,0,3.4784873016,-2.3578
 717903,1.790462551\C,0,3.2351201673,-3.641446248,2.6097536621\C,0,2.11
 68586789,-3.4874004857,3.6495278655\C,0,2.3383469291,-2.2408186257,4.5
 087475024\N,0,2.4772745225,-1.0550759842,3.6506993351\C,0,3.6279360505
 ,-1.1574412708,2.7397162731\C,0,2.3762019392,0.205308693,4.3465537682\
 C,0,3.4938981719,0.5204638423,5.3600218788\O,0,4.4473326735,-0.2211310
 322,5.5482480754\N,0,3.3891765299,1.7154173622,6.0355799109\C,0,2.2470
 930716,2.6031590696,6.0790273757\C,0,1.2307000278,2.2499731912,7.19286
 20019\C,0,1.8556853767,2.3094412117,8.5148163739\N,0,2.3985274717,2.37
 21086422,9.5384959818\H,0,-0.3265835793,0.5146913587,-0.8380454747\H,0
 ,1.4004321522,0.1647192218,-0.7012322305\H,0,0.4997358261,0.7369980973
 ,0.7155439901\H,0,-2.0373454644,-0.9595063068,0.350100045\H,0,-1.49654
 40013,-2.4006240614,1.248506501\H,0,-1.1753186682,-0.7788298936,1.8885
 557453\H,0,0.927009257,-2.1937663041,-1.6265859728\H,0,-0.1730683817,-
 3.2749210449,-0.7487109518\H,0,-0.8148613641,-1.8948772984,-1.66970016
 97\H,0,1.1392846356,-1.3669209224,2.0000756213\H,0,2.489350102,-2.9669
 52818,-0.0215366688\H,0,2.8303205267,-1.2404456939,0.0821854446\H,0,4.
 447157613,-2.4691826664,1.2834410218\H,0,3.0123443353,-4.4767642869,1.
 934978303\H,0,4.1699280583,-3.8927698719,3.1309571133\H,0,1.1558153673
 ,-3.4107608457,3.1347204148\H,0,2.0866710658,-4.3689651068,4.302095413
 7\H,0,1.4754302905,-2.0788317917,5.1674264114\H,0,3.2240490264,-2.3687
 808167,5.149455586\H,0,4.5683810331,-1.2435837208,3.3029743354\H,0,3.6
 773805775,-0.2285617148,2.1561291008\H,0,2.3503038692,1.0133186365,3.6
 01283144\H,0,1.4085451035,0.2326603542,4.8674493847\H,0,4.1057403368,1
 .8410484045,6.7426884208\H,0,2.6054737217,3.6258520038,6.2315326152\H,
 0,1.7296519626,2.5854727032,5.1178491272\H,0,0.3834952497,2.9457552073
 ,7.1624136761\H,0,0.8346670731,1.2406366773,7.0323863466\\Version=ES64
 L-G16RevA.03\State=2-A\HF=-883.0194712\S2=0.750068\S2-1=0.\S2A=0.75\RM
 SD=5.274e-09\Dipole=1.3626548,-3.0961214,-2.6814208\Quadrupole=15.8146
 084,2.9583975,-18.7730059,7.5991204,-7.2191894,-23.6285373\PG=C01 [X(C
 15H28N4O1)]\\@


 IT IS BY EATING THE LIGHT OF A STAR THAT WE EXIST, 
 IN THE FINAL ANALYSIS, 
 JUST AS IT IS BY PERCEIVING THE LIGHT OF STARS
 THAT WE DEFINE THE WORLD AROUND US.

                                    -- GILBERT GROSVENOR
 Job cpu time:       0 days  1 hours 59 minutes  6.8 seconds.
 Elapsed time:       0 days  0 hours 30 minutes 12.5 seconds.
 File lengths (MBytes):  RWF=    432 Int=      0 D2E=      0 Chk=     44 Scr=      8
 Normal termination of Gaussian 16 at Sun Dec 13 22:28:35 2020.
