 Entering Gaussian System, Link 0=g16
 Initial command:
 /apps/brussel/CO7/skylake/software/Gaussian/G16.A.03-intel-2017b/g16/l1.exe "/scratch/brussel/102/vsc10255/3579389[10733].master01.hydra.brussel.vsc/Gau-174905.inp" -scrdir="/scratch/brussel/102/vsc10255/3579389[10733].master01.hydra.brussel.vsc/"
 Entering Link 1 = /apps/brussel/CO7/skylake/software/Gaussian/G16.A.03-intel-2017b/g16/l1.exe.bin PID=    174906.
  
 Copyright (c) 1988,1990,1992,1993,1995,1998,2003,2009,2016,
            Gaussian, Inc.  All Rights Reserved.
  
 This is part of the Gaussian(R) 16 program.  It is based on
 the Gaussian(R) 09 system (copyright 2009, Gaussian, Inc.),
 the Gaussian(R) 03 system (copyright 2003, Gaussian, Inc.),
 the Gaussian(R) 98 system (copyright 1998, Gaussian, Inc.),
 the Gaussian(R) 94 system (copyright 1995, Gaussian, Inc.),
 the Gaussian 92(TM) system (copyright 1992, Gaussian, Inc.),
 the Gaussian 90(TM) system (copyright 1990, Gaussian, Inc.),
 the Gaussian 88(TM) system (copyright 1988, Gaussian, Inc.),
 the Gaussian 86(TM) system (copyright 1986, Carnegie Mellon
 University), and the Gaussian 82(TM) system (copyright 1983,
 Carnegie Mellon University). Gaussian is a federally registered
 trademark of Gaussian, Inc.
  
 This software contains proprietary and confidential information,
 including trade secrets, belonging to Gaussian, Inc.
  
 This software is provided under written license and may be
 used, copied, transmitted, or stored only in accord with that
 written license.
  
 The following legend is applicable only to US Government
 contracts under FAR:
  
                    RESTRICTED RIGHTS LEGEND
  
 Use, reproduction and disclosure by the US Government is
 subject to restrictions as set forth in subparagraphs (a)
 and (c) of the Commercial Computer Software - Restricted
 Rights clause in FAR 52.227-19.
  
 Gaussian, Inc.
 340 Quinnipiac St., Bldg. 40, Wallingford CT 06492
  
  
 ---------------------------------------------------------------
 Warning -- This program may not be used in any manner that
 competes with the business of Gaussian, Inc. or will provide
 assistance to any competitor of Gaussian, Inc.  The licensee
 of this program is prohibited from giving any competitor of
 Gaussian, Inc. access to this program.  By using this program,
 the user acknowledges that Gaussian, Inc. is engaged in the
 business of creating and licensing software in the field of
 computational chemistry and represents and warrants to the
 licensee that it is not a competitor of Gaussian, Inc. and that
 it will not use this program in any manner prohibited above.
 ---------------------------------------------------------------
  

 Cite this work as:
 Gaussian 16, Revision A.03,
 M. J. Frisch, G. W. Trucks, H. B. Schlegel, G. E. Scuseria, 
 M. A. Robb, J. R. Cheeseman, G. Scalmani, V. Barone, 
 G. A. Petersson, H. Nakatsuji, X. Li, M. Caricato, A. V. Marenich, 
 J. Bloino, B. G. Janesko, R. Gomperts, B. Mennucci, H. P. Hratchian, 
 J. V. Ortiz, A. F. Izmaylov, J. L. Sonnenberg, D. Williams-Young, 
 F. Ding, F. Lipparini, F. Egidi, J. Goings, B. Peng, A. Petrone, 
 T. Henderson, D. Ranasinghe, V. G. Zakrzewski, J. Gao, N. Rega, 
 G. Zheng, W. Liang, M. Hada, M. Ehara, K. Toyota, R. Fukuda, 
 J. Hasegawa, M. Ishida, T. Nakajima, Y. Honda, O. Kitao, H. Nakai, 
 T. Vreven, K. Throssell, J. A. Montgomery, Jr., J. E. Peralta, 
 F. Ogliaro, M. J. Bearpark, J. J. Heyd, E. N. Brothers, K. N. Kudin, 
 V. N. Staroverov, T. A. Keith, R. Kobayashi, J. Normand, 
 K. Raghavachari, A. P. Rendell, J. C. Burant, S. S. Iyengar, 
 J. Tomasi, M. Cossi, J. M. Millam, M. Klene, C. Adamo, R. Cammi, 
 J. W. Ochterski, R. L. Martin, K. Morokuma, O. Farkas, 
 J. B. Foresman, and D. J. Fox, Gaussian, Inc., Wallingford CT, 2016.
 
 ******************************************
 Gaussian 16:  ES64L-G16RevA.03 25-Dec-2016
                14-Dec-2020 
 ******************************************
 %chk=JID_10733.chk
 %mem=8GB
 %nprocshared=4
 Will use up to    4 processors via shared memory.
 -----------------------------------------------------------
 # opt freq B3LYP/6-31G(d) empiricaldispersion=gd3bj scf=xqc
 -----------------------------------------------------------
 1/18=20,19=15,26=3,38=1/1,3;
 2/9=110,12=2,17=6,18=5,40=1/2;
 3/5=1,6=6,7=1,11=2,25=1,30=1,71=1,74=-5,124=41/1,2,3;
 4//1;
 5/5=2,8=3,13=1,38=5/2,8;
 6/7=2,8=2,9=2,10=2,28=1/1;
 7//1,2,3,16;
 1/18=20,19=15,26=3/3(2);
 2/9=110/2;
 99//99;
 2/9=110/2;
 3/5=1,6=6,7=1,11=2,25=1,30=1,71=1,74=-5,124=41/1,2,3;
 4/5=5,16=3,69=1/1;
 5/5=2,8=3,13=1,38=5/2,8;
 7//1,2,3,16;
 1/18=20,19=15,26=3/3(-5);
 2/9=110/2;
 6/7=2,8=2,9=2,10=2,19=2,28=1/1;
 99/9=1/99;
 -------------------------------
 CID_83249415_JID_10733_neutraal
 -------------------------------
 Symbolic Z-matrix:
 Charge =  0 Multiplicity = 1
 C                     1.04447  -0.06974  -0.05621 
 C                     0.11797  -0.79844   0.90251 
 C                     0.45198  -0.51219   2.36879 
 C                    -0.52074   0.45705   3.07948 
 N                    -0.19369   0.45458   4.51927 
 C                     0.64362   1.64995   4.74514 
 C                     0.80174   2.20296   6.13131 
 C                     1.9675    1.543     5.44699 
 C                     0.45296   2.53083   3.56501 
 O                     0.91634   3.65324   3.45182 
 N                    -0.37238   1.84641   2.70442 
 C                    -0.93325   2.44555   1.50872 
 C                    -2.2719    3.21002   1.63253 
 C                    -2.34225   4.25689   2.75115 
 C                    -2.82643   3.70043   4.09081 
 N                    -4.11163   3.01204   3.92757 
 C                    -3.98198   1.87047   3.02303 
 C                    -3.51498   2.30679   1.63603 
 C                    -4.72191   2.64493   5.21307 
 C                    -3.97844   1.61683   6.06317 
 H                     1.05157   1.00943   0.11264 
 H                     0.73616  -0.25166  -1.09059 
 H                     2.07286  -0.43026   0.05336 
 H                    -0.92873  -0.5666    0.68019 
 H                     0.23697  -1.87385   0.71933 
 H                     0.40161  -1.47836   2.89076 
 H                     1.48938  -0.1661    2.46543 
 H                    -1.55064   0.12876   2.93306 
 H                     0.29623  -0.3977    4.77581 
 H                     0.82786   3.281     6.24753 
 H                     0.32376   1.67982   6.94996 
 H                     2.29104   0.57935   5.81863 
 H                     2.77607   2.18152   5.10675 
 H                    -0.18569   3.15988   1.13909 
 H                    -1.03241   1.68097   0.7361 
 H                    -2.32968   3.77233   0.68768 
 H                    -1.3794    4.7632    2.87452 
 H                    -3.04824   5.03934   2.4385 
 H                    -2.07431   3.03746   4.52573 
 H                    -2.94347   4.54499   4.7809 
 H                    -4.95496   1.37688   2.90678 
 H                    -3.29856   1.12377   3.42916 
 H                    -4.33701   2.86731   1.1685 
 H                    -3.3557    1.42557   1.00345 
 H                    -4.86435   3.5553    5.80874 
 H                    -5.73484   2.26831   5.02136 
 H                    -2.97505   1.95874   6.33272 
 H                    -4.5279    1.44375   6.99464 
 H                    -3.89309   0.65226   5.55384 
 

 GradGradGradGradGradGradGradGradGradGradGradGradGradGradGradGradGradGrad
 Berny optimization.
 Initialization pass.
                           ----------------------------
                           !    Initial Parameters    !
                           ! (Angstroms and Degrees)  !
 --------------------------                            --------------------------
 ! Name  Definition              Value          Derivative Info.                !
 --------------------------------------------------------------------------------
 ! R1    R(1,2)                  1.5194         estimate D2E/DX2                !
 ! R2    R(1,21)                 1.0923         estimate D2E/DX2                !
 ! R3    R(1,22)                 1.0946         estimate D2E/DX2                !
 ! R4    R(1,23)                 1.0952         estimate D2E/DX2                !
 ! R5    R(2,3)                  1.5308         estimate D2E/DX2                !
 ! R6    R(2,24)                 1.0949         estimate D2E/DX2                !
 ! R7    R(2,25)                 1.0974         estimate D2E/DX2                !
 ! R8    R(3,4)                  1.5462         estimate D2E/DX2                !
 ! R9    R(3,26)                 1.0993         estimate D2E/DX2                !
 ! R10   R(3,27)                 1.0979         estimate D2E/DX2                !
 ! R11   R(4,5)                  1.4765         estimate D2E/DX2                !
 ! R12   R(4,11)                 1.4467         estimate D2E/DX2                !
 ! R13   R(4,28)                 1.0908         estimate D2E/DX2                !
 ! R14   R(5,6)                  1.4768         estimate D2E/DX2                !
 ! R15   R(5,29)                 1.016          estimate D2E/DX2                !
 ! R16   R(6,7)                  1.5008         estimate D2E/DX2                !
 ! R17   R(6,8)                  1.5022         estimate D2E/DX2                !
 ! R18   R(6,9)                  1.4849         estimate D2E/DX2                !
 ! R19   R(7,8)                  1.5043         estimate D2E/DX2                !
 ! R20   R(7,30)                 1.0846         estimate D2E/DX2                !
 ! R21   R(7,31)                 1.0827         estimate D2E/DX2                !
 ! R22   R(8,32)                 1.0823         estimate D2E/DX2                !
 ! R23   R(8,33)                 1.085          estimate D2E/DX2                !
 ! R24   R(9,10)                 1.2196         estimate D2E/DX2                !
 ! R25   R(9,11)                 1.3749         estimate D2E/DX2                !
 ! R26   R(11,12)                1.4503         estimate D2E/DX2                !
 ! R27   R(12,13)                1.5465         estimate D2E/DX2                !
 ! R28   R(12,34)                1.0981         estimate D2E/DX2                !
 ! R29   R(12,35)                1.0915         estimate D2E/DX2                !
 ! R30   R(13,14)                1.5337         estimate D2E/DX2                !
 ! R31   R(13,18)                1.5366         estimate D2E/DX2                !
 ! R32   R(13,36)                1.101          estimate D2E/DX2                !
 ! R33   R(14,15)                1.5293         estimate D2E/DX2                !
 ! R34   R(14,37)                1.0948         estimate D2E/DX2                !
 ! R35   R(14,38)                1.0993         estimate D2E/DX2                !
 ! R36   R(15,16)                1.4671         estimate D2E/DX2                !
 ! R37   R(15,39)                1.0929         estimate D2E/DX2                !
 ! R38   R(15,40)                1.0969         estimate D2E/DX2                !
 ! R39   R(16,17)                1.4623         estimate D2E/DX2                !
 ! R40   R(16,19)                1.4696         estimate D2E/DX2                !
 ! R41   R(17,18)                1.5272         estimate D2E/DX2                !
 ! R42   R(17,41)                1.0972         estimate D2E/DX2                !
 ! R43   R(17,42)                1.0907         estimate D2E/DX2                !
 ! R44   R(18,43)                1.0993         estimate D2E/DX2                !
 ! R45   R(18,44)                1.0964         estimate D2E/DX2                !
 ! R46   R(19,20)                1.5272         estimate D2E/DX2                !
 ! R47   R(19,45)                1.0972         estimate D2E/DX2                !
 ! R48   R(19,46)                1.0976         estimate D2E/DX2                !
 ! R49   R(20,47)                1.0938         estimate D2E/DX2                !
 ! R50   R(20,48)                1.0952         estimate D2E/DX2                !
 ! R51   R(20,49)                1.0941         estimate D2E/DX2                !
 ! A1    A(2,1,21)             112.3492         estimate D2E/DX2                !
 ! A2    A(2,1,22)             110.1709         estimate D2E/DX2                !
 ! A3    A(2,1,23)             110.5832         estimate D2E/DX2                !
 ! A4    A(21,1,22)            108.1864         estimate D2E/DX2                !
 ! A5    A(21,1,23)            107.6762         estimate D2E/DX2                !
 ! A6    A(22,1,23)            107.7166         estimate D2E/DX2                !
 ! A7    A(1,2,3)              112.436          estimate D2E/DX2                !
 ! A8    A(1,2,24)             110.6875         estimate D2E/DX2                !
 ! A9    A(1,2,25)             107.3704         estimate D2E/DX2                !
 ! A10   A(3,2,24)             111.3142         estimate D2E/DX2                !
 ! A11   A(3,2,25)             108.631          estimate D2E/DX2                !
 ! A12   A(24,2,25)            106.0983         estimate D2E/DX2                !
 ! A13   A(2,3,4)              114.8477         estimate D2E/DX2                !
 ! A14   A(2,3,26)             106.2872         estimate D2E/DX2                !
 ! A15   A(2,3,27)             110.4523         estimate D2E/DX2                !
 ! A16   A(4,3,26)             107.6901         estimate D2E/DX2                !
 ! A17   A(4,3,27)             110.8786         estimate D2E/DX2                !
 ! A18   A(26,3,27)            106.1743         estimate D2E/DX2                !
 ! A19   A(3,4,5)              107.9279         estimate D2E/DX2                !
 ! A20   A(3,4,11)             114.7291         estimate D2E/DX2                !
 ! A21   A(3,4,28)             110.0974         estimate D2E/DX2                !
 ! A22   A(5,4,11)             103.3971         estimate D2E/DX2                !
 ! A23   A(5,4,28)             109.848          estimate D2E/DX2                !
 ! A24   A(11,4,28)            110.5512         estimate D2E/DX2                !
 ! A25   A(4,5,6)              105.8653         estimate D2E/DX2                !
 ! A26   A(4,5,29)             110.7597         estimate D2E/DX2                !
 ! A27   A(6,5,29)             111.5297         estimate D2E/DX2                !
 ! A28   A(5,6,7)              119.951          estimate D2E/DX2                !
 ! A29   A(5,6,8)              120.8962         estimate D2E/DX2                !
 ! A30   A(5,6,9)              106.6074         estimate D2E/DX2                !
 ! A31   A(7,6,9)              121.9374         estimate D2E/DX2                !
 ! A32   A(8,6,9)              121.7823         estimate D2E/DX2                !
 ! A33   A(6,7,30)             117.8894         estimate D2E/DX2                !
 ! A34   A(6,7,31)             118.2818         estimate D2E/DX2                !
 ! A35   A(8,7,30)             117.7849         estimate D2E/DX2                !
 ! A36   A(8,7,31)             118.3005         estimate D2E/DX2                !
 ! A37   A(30,7,31)            114.1956         estimate D2E/DX2                !
 ! A38   A(6,8,32)             119.1604         estimate D2E/DX2                !
 ! A39   A(6,8,33)             117.9265         estimate D2E/DX2                !
 ! A40   A(7,8,32)             117.7799         estimate D2E/DX2                !
 ! A41   A(7,8,33)             117.5153         estimate D2E/DX2                !
 ! A42   A(32,8,33)            114.134          estimate D2E/DX2                !
 ! A43   A(6,9,10)             124.8153         estimate D2E/DX2                !
 ! A44   A(6,9,11)             106.2145         estimate D2E/DX2                !
 ! A45   A(10,9,11)            128.9138         estimate D2E/DX2                !
 ! A46   A(4,11,9)             112.1702         estimate D2E/DX2                !
 ! A47   A(4,11,12)            124.8082         estimate D2E/DX2                !
 ! A48   A(9,11,12)            122.8596         estimate D2E/DX2                !
 ! A49   A(11,12,13)           118.227          estimate D2E/DX2                !
 ! A50   A(11,12,34)           106.4392         estimate D2E/DX2                !
 ! A51   A(11,12,35)           109.2295         estimate D2E/DX2                !
 ! A52   A(13,12,34)           107.1377         estimate D2E/DX2                !
 ! A53   A(13,12,35)           108.9229         estimate D2E/DX2                !
 ! A54   A(34,12,35)           106.2164         estimate D2E/DX2                !
 ! A55   A(12,13,14)           115.8176         estimate D2E/DX2                !
 ! A56   A(12,13,18)           114.1965         estimate D2E/DX2                !
 ! A57   A(12,13,36)           103.2486         estimate D2E/DX2                !
 ! A58   A(14,13,18)           111.2517         estimate D2E/DX2                !
 ! A59   A(14,13,36)           105.9557         estimate D2E/DX2                !
 ! A60   A(18,13,36)           105.0526         estimate D2E/DX2                !
 ! A61   A(13,14,15)           113.8958         estimate D2E/DX2                !
 ! A62   A(13,14,37)           110.9475         estimate D2E/DX2                !
 ! A63   A(13,14,38)           107.931          estimate D2E/DX2                !
 ! A64   A(15,14,37)           110.3649         estimate D2E/DX2                !
 ! A65   A(15,14,38)           107.7467         estimate D2E/DX2                !
 ! A66   A(37,14,38)           105.527          estimate D2E/DX2                !
 ! A67   A(14,15,16)           110.5252         estimate D2E/DX2                !
 ! A68   A(14,15,39)           110.5764         estimate D2E/DX2                !
 ! A69   A(14,15,40)           107.7421         estimate D2E/DX2                !
 ! A70   A(16,15,39)           111.2553         estimate D2E/DX2                !
 ! A71   A(16,15,40)           109.7436         estimate D2E/DX2                !
 ! A72   A(39,15,40)           106.8663         estimate D2E/DX2                !
 ! A73   A(15,16,17)           110.9457         estimate D2E/DX2                !
 ! A74   A(15,16,19)           112.5616         estimate D2E/DX2                !
 ! A75   A(17,16,19)           112.5135         estimate D2E/DX2                !
 ! A76   A(16,17,18)           111.4619         estimate D2E/DX2                !
 ! A77   A(16,17,41)           109.7625         estimate D2E/DX2                !
 ! A78   A(16,17,42)           111.0814         estimate D2E/DX2                !
 ! A79   A(18,17,41)           107.6666         estimate D2E/DX2                !
 ! A80   A(18,17,42)           110.0097         estimate D2E/DX2                !
 ! A81   A(41,17,42)           106.6862         estimate D2E/DX2                !
 ! A82   A(13,18,17)           114.6704         estimate D2E/DX2                !
 ! A83   A(13,18,43)           107.713          estimate D2E/DX2                !
 ! A84   A(13,18,44)           110.7085         estimate D2E/DX2                !
 ! A85   A(17,18,43)           107.6541         estimate D2E/DX2                !
 ! A86   A(17,18,44)           109.8038         estimate D2E/DX2                !
 ! A87   A(43,18,44)           105.8469         estimate D2E/DX2                !
 ! A88   A(16,19,20)           116.9303         estimate D2E/DX2                !
 ! A89   A(16,19,45)           108.7554         estimate D2E/DX2                !
 ! A90   A(16,19,46)           108.4321         estimate D2E/DX2                !
 ! A91   A(20,19,45)           108.6359         estimate D2E/DX2                !
 ! A92   A(20,19,46)           108.3913         estimate D2E/DX2                !
 ! A93   A(45,19,46)           105.0539         estimate D2E/DX2                !
 ! A94   A(19,20,47)           111.9208         estimate D2E/DX2                !
 ! A95   A(19,20,48)           109.6069         estimate D2E/DX2                !
 ! A96   A(19,20,49)           111.8593         estimate D2E/DX2                !
 ! A97   A(47,20,48)           107.4599         estimate D2E/DX2                !
 ! A98   A(47,20,49)           108.5869         estimate D2E/DX2                !
 ! A99   A(48,20,49)           107.2014         estimate D2E/DX2                !
 ! D1    D(21,1,2,3)           -55.895          estimate D2E/DX2                !
 ! D2    D(21,1,2,24)           69.2939         estimate D2E/DX2                !
 ! D3    D(21,1,2,25)         -175.322          estimate D2E/DX2                !
 ! D4    D(22,1,2,3)          -176.5947         estimate D2E/DX2                !
 ! D5    D(22,1,2,24)          -51.4058         estimate D2E/DX2                !
 ! D6    D(22,1,2,25)           63.9784         estimate D2E/DX2                !
 ! D7    D(23,1,2,3)            64.4417         estimate D2E/DX2                !
 ! D8    D(23,1,2,24)         -170.3694         estimate D2E/DX2                !
 ! D9    D(23,1,2,25)          -54.9852         estimate D2E/DX2                !
 ! D10   D(1,2,3,4)            104.6857         estimate D2E/DX2                !
 ! D11   D(1,2,3,26)          -136.3562         estimate D2E/DX2                !
 ! D12   D(1,2,3,27)           -21.604          estimate D2E/DX2                !
 ! D13   D(24,2,3,4)           -20.1598         estimate D2E/DX2                !
 ! D14   D(24,2,3,26)           98.7983         estimate D2E/DX2                !
 ! D15   D(24,2,3,27)         -146.4495         estimate D2E/DX2                !
 ! D16   D(25,2,3,4)          -136.6246         estimate D2E/DX2                !
 ! D17   D(25,2,3,26)          -17.6665         estimate D2E/DX2                !
 ! D18   D(25,2,3,27)           97.0858         estimate D2E/DX2                !
 ! D19   D(2,3,4,5)            170.9836         estimate D2E/DX2                !
 ! D20   D(2,3,4,11)           -74.3637         estimate D2E/DX2                !
 ! D21   D(2,3,4,28)            51.0915         estimate D2E/DX2                !
 ! D22   D(26,3,4,5)            52.8128         estimate D2E/DX2                !
 ! D23   D(26,3,4,11)          167.4655         estimate D2E/DX2                !
 ! D24   D(26,3,4,28)          -67.0793         estimate D2E/DX2                !
 ! D25   D(27,3,4,5)           -62.9466         estimate D2E/DX2                !
 ! D26   D(27,3,4,11)           51.7061         estimate D2E/DX2                !
 ! D27   D(27,3,4,28)          177.1613         estimate D2E/DX2                !
 ! D28   D(3,4,5,6)             98.6            estimate D2E/DX2                !
 ! D29   D(3,4,5,29)           -22.4466         estimate D2E/DX2                !
 ! D30   D(11,4,5,6)           -23.3403         estimate D2E/DX2                !
 ! D31   D(11,4,5,29)         -144.3869         estimate D2E/DX2                !
 ! D32   D(28,4,5,6)          -141.3506         estimate D2E/DX2                !
 ! D33   D(28,4,5,29)           97.6027         estimate D2E/DX2                !
 ! D34   D(3,4,11,9)           -94.3807         estimate D2E/DX2                !
 ! D35   D(3,4,11,12)           81.0918         estimate D2E/DX2                !
 ! D36   D(5,4,11,9)            22.8824         estimate D2E/DX2                !
 ! D37   D(5,4,11,12)         -161.6451         estimate D2E/DX2                !
 ! D38   D(28,4,11,9)          140.4013         estimate D2E/DX2                !
 ! D39   D(28,4,11,12)         -44.1263         estimate D2E/DX2                !
 ! D40   D(4,5,6,7)            160.7678         estimate D2E/DX2                !
 ! D41   D(4,5,6,8)           -128.2099         estimate D2E/DX2                !
 ! D42   D(4,5,6,9)             16.7733         estimate D2E/DX2                !
 ! D43   D(29,5,6,7)           -78.6852         estimate D2E/DX2                !
 ! D44   D(29,5,6,8)            -7.6629         estimate D2E/DX2                !
 ! D45   D(29,5,6,9)           137.3203         estimate D2E/DX2                !
 ! D46   D(5,6,7,30)          -141.704          estimate D2E/DX2                !
 ! D47   D(5,6,7,31)             2.5207         estimate D2E/DX2                !
 ! D48   D(9,6,7,30)            -3.2964         estimate D2E/DX2                !
 ! D49   D(9,6,7,31)           140.9284         estimate D2E/DX2                !
 ! D50   D(5,6,8,32)            -2.0386         estimate D2E/DX2                !
 ! D51   D(5,6,8,33)           143.6196         estimate D2E/DX2                !
 ! D52   D(9,6,8,32)          -141.7321         estimate D2E/DX2                !
 ! D53   D(9,6,8,33)             3.926          estimate D2E/DX2                !
 ! D54   D(5,6,9,10)           174.3928         estimate D2E/DX2                !
 ! D55   D(5,6,9,11)            -3.0826         estimate D2E/DX2                !
 ! D56   D(7,6,9,10)            31.2779         estimate D2E/DX2                !
 ! D57   D(7,6,9,11)          -146.1976         estimate D2E/DX2                !
 ! D58   D(8,6,9,10)           -41.0047         estimate D2E/DX2                !
 ! D59   D(8,6,9,11)           141.5198         estimate D2E/DX2                !
 ! D60   D(30,7,8,32)          142.8292         estimate D2E/DX2                !
 ! D61   D(30,7,8,33)            0.128          estimate D2E/DX2                !
 ! D62   D(31,7,8,32)           -1.2539         estimate D2E/DX2                !
 ! D63   D(31,7,8,33)         -143.955          estimate D2E/DX2                !
 ! D64   D(6,9,11,4)           -12.5649         estimate D2E/DX2                !
 ! D65   D(6,9,11,12)          171.8604         estimate D2E/DX2                !
 ! D66   D(10,9,11,4)          170.099          estimate D2E/DX2                !
 ! D67   D(10,9,11,12)          -5.4758         estimate D2E/DX2                !
 ! D68   D(4,11,12,13)          97.5629         estimate D2E/DX2                !
 ! D69   D(4,11,12,34)        -141.9673         estimate D2E/DX2                !
 ! D70   D(4,11,12,35)         -27.6811         estimate D2E/DX2                !
 ! D71   D(9,11,12,13)         -87.4297         estimate D2E/DX2                !
 ! D72   D(9,11,12,34)          33.0402         estimate D2E/DX2                !
 ! D73   D(9,11,12,35)         147.3264         estimate D2E/DX2                !
 ! D74   D(11,12,13,14)         50.2096         estimate D2E/DX2                !
 ! D75   D(11,12,13,18)        -81.0011         estimate D2E/DX2                !
 ! D76   D(11,12,13,36)        165.527          estimate D2E/DX2                !
 ! D77   D(34,12,13,14)        -69.8995         estimate D2E/DX2                !
 ! D78   D(34,12,13,18)        158.8898         estimate D2E/DX2                !
 ! D79   D(34,12,13,36)         45.4179         estimate D2E/DX2                !
 ! D80   D(35,12,13,14)        175.6032         estimate D2E/DX2                !
 ! D81   D(35,12,13,18)         44.3925         estimate D2E/DX2                !
 ! D82   D(35,12,13,36)        -69.0794         estimate D2E/DX2                !
 ! D83   D(12,13,14,15)        -89.1575         estimate D2E/DX2                !
 ! D84   D(12,13,14,37)         36.0938         estimate D2E/DX2                !
 ! D85   D(12,13,14,38)        151.2536         estimate D2E/DX2                !
 ! D86   D(18,13,14,15)         43.428          estimate D2E/DX2                !
 ! D87   D(18,13,14,37)        168.6794         estimate D2E/DX2                !
 ! D88   D(18,13,14,38)        -76.1608         estimate D2E/DX2                !
 ! D89   D(36,13,14,15)        157.0696         estimate D2E/DX2                !
 ! D90   D(36,13,14,37)        -77.679          estimate D2E/DX2                !
 ! D91   D(36,13,14,38)         37.4808         estimate D2E/DX2                !
 ! D92   D(12,13,18,17)         91.735          estimate D2E/DX2                !
 ! D93   D(12,13,18,43)       -148.4604         estimate D2E/DX2                !
 ! D94   D(12,13,18,44)        -33.1705         estimate D2E/DX2                !
 ! D95   D(14,13,18,17)        -41.6618         estimate D2E/DX2                !
 ! D96   D(14,13,18,43)         78.1428         estimate D2E/DX2                !
 ! D97   D(14,13,18,44)       -166.5673         estimate D2E/DX2                !
 ! D98   D(36,13,18,17)       -155.8681         estimate D2E/DX2                !
 ! D99   D(36,13,18,43)        -36.0635         estimate D2E/DX2                !
 ! D100  D(36,13,18,44)         79.2264         estimate D2E/DX2                !
 ! D101  D(13,14,15,16)        -53.9998         estimate D2E/DX2                !
 ! D102  D(13,14,15,39)         69.6437         estimate D2E/DX2                !
 ! D103  D(13,14,15,40)       -173.9012         estimate D2E/DX2                !
 ! D104  D(37,14,15,16)       -179.5602         estimate D2E/DX2                !
 ! D105  D(37,14,15,39)        -55.9168         estimate D2E/DX2                !
 ! D106  D(37,14,15,40)         60.5384         estimate D2E/DX2                !
 ! D107  D(38,14,15,16)         65.6933         estimate D2E/DX2                !
 ! D108  D(38,14,15,39)       -170.6633         estimate D2E/DX2                !
 ! D109  D(38,14,15,40)        -54.2081         estimate D2E/DX2                !
 ! D110  D(14,15,16,17)         61.9544         estimate D2E/DX2                !
 ! D111  D(14,15,16,19)       -170.9601         estimate D2E/DX2                !
 ! D112  D(39,15,16,17)        -61.2962         estimate D2E/DX2                !
 ! D113  D(39,15,16,19)         65.7893         estimate D2E/DX2                !
 ! D114  D(40,15,16,17)       -179.3546         estimate D2E/DX2                !
 ! D115  D(40,15,16,19)        -52.2692         estimate D2E/DX2                !
 ! D116  D(15,16,17,18)        -60.2199         estimate D2E/DX2                !
 ! D117  D(15,16,17,41)       -179.4124         estimate D2E/DX2                !
 ! D118  D(15,16,17,42)         62.8459         estimate D2E/DX2                !
 ! D119  D(19,16,17,18)        172.6683         estimate D2E/DX2                !
 ! D120  D(19,16,17,41)         53.4758         estimate D2E/DX2                !
 ! D121  D(19,16,17,42)        -64.2659         estimate D2E/DX2                !
 ! D122  D(15,16,19,20)        -65.1274         estimate D2E/DX2                !
 ! D123  D(15,16,19,45)         58.3093         estimate D2E/DX2                !
 ! D124  D(15,16,19,46)        172.0309         estimate D2E/DX2                !
 ! D125  D(17,16,19,20)         61.1187         estimate D2E/DX2                !
 ! D126  D(17,16,19,45)       -175.4447         estimate D2E/DX2                !
 ! D127  D(17,16,19,46)        -61.7231         estimate D2E/DX2                !
 ! D128  D(16,17,18,13)         50.4521         estimate D2E/DX2                !
 ! D129  D(16,17,18,43)        -69.3852         estimate D2E/DX2                !
 ! D130  D(16,17,18,44)        175.8319         estimate D2E/DX2                !
 ! D131  D(41,17,18,13)        170.8838         estimate D2E/DX2                !
 ! D132  D(41,17,18,43)         51.0465         estimate D2E/DX2                !
 ! D133  D(41,17,18,44)        -63.7364         estimate D2E/DX2                !
 ! D134  D(42,17,18,13)        -73.2235         estimate D2E/DX2                !
 ! D135  D(42,17,18,43)        166.9391         estimate D2E/DX2                !
 ! D136  D(42,17,18,44)         52.1563         estimate D2E/DX2                !
 ! D137  D(16,19,20,47)         60.0797         estimate D2E/DX2                !
 ! D138  D(16,19,20,48)        179.2021         estimate D2E/DX2                !
 ! D139  D(16,19,20,49)        -62.0366         estimate D2E/DX2                !
 ! D140  D(45,19,20,47)        -63.4181         estimate D2E/DX2                !
 ! D141  D(45,19,20,48)         55.7043         estimate D2E/DX2                !
 ! D142  D(45,19,20,49)        174.4655         estimate D2E/DX2                !
 ! D143  D(46,19,20,47)       -177.0575         estimate D2E/DX2                !
 ! D144  D(46,19,20,48)        -57.935          estimate D2E/DX2                !
 ! D145  D(46,19,20,49)         60.8262         estimate D2E/DX2                !
 --------------------------------------------------------------------------------
 Trust Radius=3.00D-01 FncErr=1.00D-07 GrdErr=1.00D-06 EigMax=2.50D+02 EigMin=1.00D-04
 Number of steps in this run=    294 maximum allowed number of steps=    294.
 GradGradGradGradGradGradGradGradGradGradGradGradGradGradGradGradGradGrad

                          Input orientation:                          
 ---------------------------------------------------------------------
 Center     Atomic      Atomic             Coordinates (Angstroms)
 Number     Number       Type             X           Y           Z
 ---------------------------------------------------------------------
      1          6           0        1.044470   -0.069740   -0.056210
      2          6           0        0.117970   -0.798440    0.902510
      3          6           0        0.451980   -0.512190    2.368790
      4          6           0       -0.520740    0.457050    3.079480
      5          7           0       -0.193690    0.454580    4.519270
      6          6           0        0.643620    1.649950    4.745140
      7          6           0        0.801740    2.202960    6.131310
      8          6           0        1.967500    1.543000    5.446990
      9          6           0        0.452960    2.530830    3.565010
     10          8           0        0.916340    3.653240    3.451820
     11          7           0       -0.372380    1.846410    2.704420
     12          6           0       -0.933250    2.445550    1.508720
     13          6           0       -2.271900    3.210020    1.632530
     14          6           0       -2.342250    4.256890    2.751150
     15          6           0       -2.826430    3.700430    4.090810
     16          7           0       -4.111630    3.012040    3.927570
     17          6           0       -3.981980    1.870470    3.023030
     18          6           0       -3.514980    2.306790    1.636030
     19          6           0       -4.721910    2.644930    5.213070
     20          6           0       -3.978440    1.616830    6.063170
     21          1           0        1.051570    1.009430    0.112640
     22          1           0        0.736160   -0.251660   -1.090590
     23          1           0        2.072860   -0.430260    0.053360
     24          1           0       -0.928730   -0.566600    0.680190
     25          1           0        0.236970   -1.873850    0.719330
     26          1           0        0.401610   -1.478360    2.890760
     27          1           0        1.489380   -0.166100    2.465430
     28          1           0       -1.550640    0.128760    2.933060
     29          1           0        0.296230   -0.397700    4.775810
     30          1           0        0.827860    3.281000    6.247530
     31          1           0        0.323760    1.679820    6.949960
     32          1           0        2.291040    0.579350    5.818630
     33          1           0        2.776070    2.181520    5.106750
     34          1           0       -0.185690    3.159880    1.139090
     35          1           0       -1.032410    1.680970    0.736100
     36          1           0       -2.329680    3.772330    0.687680
     37          1           0       -1.379400    4.763200    2.874520
     38          1           0       -3.048240    5.039340    2.438500
     39          1           0       -2.074310    3.037460    4.525730
     40          1           0       -2.943470    4.544990    4.780900
     41          1           0       -4.954960    1.376880    2.906780
     42          1           0       -3.298560    1.123770    3.429160
     43          1           0       -4.337010    2.867310    1.168500
     44          1           0       -3.355700    1.425570    1.003450
     45          1           0       -4.864350    3.555300    5.808740
     46          1           0       -5.734840    2.268310    5.021360
     47          1           0       -2.975050    1.958740    6.332720
     48          1           0       -4.527900    1.443750    6.994640
     49          1           0       -3.893090    0.652260    5.553840
 ---------------------------------------------------------------------
                    Distance matrix (angstroms):
                    1          2          3          4          5
     1  C    0.000000
     2  C    1.519391   0.000000
     3  C    2.535238   1.530843   0.000000
     4  C    3.544001   2.592953   1.546186   0.000000
     5  N    4.768959   3.840331   2.444606   1.476470   0.000000
     6  C    5.115758   4.586581   3.218480   2.356516   1.476826
     7  C    6.596172   6.067643   4.653056   3.756437   2.578059
     8  C    5.808453   5.436488   3.999490   3.602184   2.591537
     9  C    4.497342   4.276115   3.269696   2.341878   2.374781
    10  O    5.116959   5.191708   4.328902   3.524126   3.550076
    11  N    3.646940   3.237677   2.520954   1.446721   2.294080
    12  C    3.561891   3.463528   3.377397   2.567408   3.684335
    13  C    4.960542   4.723575   4.670808   3.569183   4.499408
    14  C    6.170160   5.918320   5.540582   4.226640   4.711700
    15  C    6.811448   6.250966   5.608876   4.105911   4.201243
    16  N    7.207859   6.446725   5.972983   4.487953   4.716033
    17  C    6.205750   5.331911   5.075933   3.739134   4.312148
    18  C    5.412962   4.835166   4.921418   3.804019   4.772287
    19  C    8.269576   7.339085   6.695258   5.195080   5.077772
    20  C    8.094502   7.017586   6.148967   4.712026   4.249563
    21  H    1.092323   2.182635   2.786584   3.402855   4.612691
    22  H    1.094574   2.157215   3.480796   4.412658   5.730089
    23  H    1.095247   2.162916   2.827575   4.083073   5.085720
    24  H    2.163948   1.094878   2.181901   2.640248   4.040003
    25  H    2.123283   1.097371   2.149666   3.402577   4.477343
    26  H    3.328981   2.120349   1.099306   2.152245   2.596668
    27  H    2.562401   2.173324   1.097869   2.192249   2.726945
    28  H    3.963551   2.786950   2.177086   1.090829   2.112708
    29  H    4.900596   3.898054   2.414769   2.067746   1.015980
    30  H    7.142235   6.761288   5.438217   4.453084   3.466857
    31  H    7.257190   6.538790   5.080203   4.145957   2.770780
    32  H    6.040613   5.548763   4.058940   3.927341   2.806740
    33  H    5.892603   5.798387   4.489309   4.237048   3.485244
    34  H    3.656840   3.976993   3.924651   3.344049   4.329472
    35  H    2.829518   2.738346   3.111116   2.692808   4.064463
    36  H    5.167181   5.189324   5.377813   4.470353   5.500091
    37  H    6.149930   6.087921   5.607090   4.395706   4.761861
    38  H    7.005466   6.816438   6.563222   5.272238   5.787753
    39  H    6.354184   5.713838   4.861537   3.341218   3.195003
    40  H    7.784410   7.277813   6.551521   5.047346   4.935706
    41  H    6.845815   5.872285   5.752653   4.531911   5.110817
    42  H    5.695101   4.663853   4.226973   2.878033   3.358031
    43  H    6.251920   5.775407   5.982988   4.901542   5.849447
    44  H    4.766584   4.125869   4.485253   3.644850   4.827227
    45  H    9.080347   8.237090   7.526028   5.992909   5.752587
    46  H    8.786765   7.786223   7.283135   5.851359   5.852013
    47  H    7.815990   6.830519   5.793338   4.343073   3.645142
    48  H    9.113531   7.982830   7.072722   5.688531   5.088348
    49  H    7.508225   6.310943   5.511816   4.187279   3.846423
                    6          7          8          9         10
     6  C    0.000000
     7  C    1.500763   0.000000
     8  C    1.502228   1.504273   0.000000
     9  C    1.484927   2.610564   2.609883   0.000000
    10  O    2.400047   3.048953   3.088487   1.219564   0.000000
    11  N    2.288098   3.639953   3.617843   1.374857   2.341803
    12  C    3.686992   4.943418   4.973823   2.481366   2.941961
    13  C    4.541191   5.540799   5.941513   3.408906   3.697450
    14  C    4.437066   5.052602   5.762525   3.384501   3.387291
    15  C    4.083364   4.423762   5.429134   3.521197   3.797218
    16  N    5.013593   5.445391   6.436034   4.604182   5.090968
    17  C    4.940695   5.714537   6.432661   4.516471   5.230265
    18  C    5.233733   6.233169   6.720445   4.417658   4.974597
    19  C    5.477030   5.616868   6.783596   5.432163   5.992375
    20  C    4.806427   4.816463   5.978238   5.168511   5.909737
    21  H    4.694331   6.140954   5.438650   3.819928   4.261237
    22  H    6.138439   7.627929   6.890352   5.431120   5.992846
    23  H    5.327551   6.744707   5.744223   4.870710   5.437099
    24  H    4.889703   6.354502   5.963300   4.452564   5.375246
    25  H    5.365601   6.799182   6.084436   5.248405   6.202965
    26  H    3.644670   4.920710   4.256165   4.065815   5.187779
    27  H    3.034868   4.418594   3.469773   3.091387   3.986063
    28  H    3.226830   4.479375   4.549421   3.191193   4.333251
    29  H    2.077135   2.975963   2.647630   3.172836   4.306693
    30  H    2.225184   1.084601   2.227170   2.810555   2.821770
    31  H    2.228101   1.082741   2.231484   3.492678   4.059867
    32  H    2.238874   2.225285   1.082320   3.502230   4.115870
    33  H    2.227256   2.224446   1.085015   2.809950   2.891945
    34  H    3.996403   5.178125   5.080210   2.586245   2.608945
    35  H    4.345393   5.722313   5.586679   3.306254   3.881058
    36  H    5.459670   6.473162   6.788719   4.190875   4.265126
    37  H    4.157422   4.681761   5.309334   2.969477   2.614519
    38  H    5.517099   6.041874   6.814180   4.451971   4.320415
    39  H    3.059488   3.397932   4.406627   2.750773   3.236735
    40  H    4.609745   4.619016   5.794243   4.131703   4.178493
    41  H    5.899003   6.649782   7.375684   5.568704   6.320684
    42  H    4.189207   5.027795   5.654978   4.009012   4.915701
    43  H    6.251479   7.174789   7.733442   5.366590   5.781775
    44  H    5.481346   6.647074   6.935077   4.721131   5.404383
    45  H    5.924469   5.834162   7.131226   5.861540   6.243480
    46  H    6.414314   6.630470   7.748114   6.362291   6.972782
    47  H    3.963652   3.790033   5.038468   4.442832   5.129701
    48  H    5.643349   5.452229   6.677971   6.144353   6.860989
    49  H    4.714989   4.977908   5.928857   5.135428   6.046072
                   11         12         13         14         15
    11  N    0.000000
    12  C    1.450256   0.000000
    13  C    2.572267   1.546521   0.000000
    14  C    3.113356   2.609572   1.533687   0.000000
    15  C    3.373697   3.438901   2.567323   1.529303   0.000000
    16  N    4.103265   4.034085   2.948052   2.462584   1.467061
    17  C    3.623714   3.452333   2.579197   2.908201   2.413339
    18  C    3.351021   2.588589   1.536582   2.534103   2.905560
    19  C    5.084228   5.302443   4.375173   3.784474   2.442620
    20  C    4.933313   5.541026   5.008104   4.540541   3.091718
    21  H    3.073352   2.819750   4.265925   5.387555   6.173022
    22  H    4.475808   4.101010   5.333576   6.675522   7.426841
    23  H    4.265037   4.407386   5.884076   6.981450   7.574077
    24  H    3.198382   3.124025   4.119941   5.436264   5.782831
    25  H    4.260543   4.544202   5.742308   6.954613   7.198881
    26  H    3.418754   4.369091   5.541814   6.359351   6.219343
    27  H    2.751993   3.688515   5.122415   5.858828   6.018150
    28  H    2.095446   2.788805   3.421368   4.207279   3.965457
    29  H    3.126296   4.502174   5.430575   5.720667   5.197586
    30  H    4.006526   5.124042   5.559836   4.819402   4.263942
    31  H    4.305459   5.636800   6.111794   5.601688   4.709703
    32  H    4.289237   5.696848   6.727873   6.663416   6.238189
    33  H    3.974447   5.174417   6.213696   6.004433   5.892981
    34  H    2.051905   1.098062   2.144358   2.907390   3.997293
    35  H    2.082617   1.091493   2.162849   3.522992   4.307065
    36  H    3.406968   2.093912   1.101033   2.119638   3.439945
    37  H    3.090419   2.726896   2.179785   1.094829   2.168580
    38  H    4.174415   3.473531   2.144459   1.099272   2.138225
    39  H    2.762668   3.279440   2.905069   2.169778   1.092872
    40  H    4.266686   4.376733   3.485023   2.136434   1.096907
    41  H    4.611014   4.389850   3.490405   3.891649   3.366222
    42  H    3.099998   3.321127   2.938426   3.345245   2.701826
    43  H    4.372594   3.446623   2.144167   2.900824   3.393499
    44  H    3.459856   2.676550   2.180510   3.478205   3.871293
    45  H    5.721442   5.930874   4.927550   4.025180   2.669357
    46  H    5.856807   5.951917   4.935883   4.540702   3.372794
    47  H    4.466662   5.260885   4.914459   4.302275   2.842839
    48  H    5.986357   6.634789   6.079595   5.540580   4.052139
    49  H    4.684078   5.323489   4.954500   4.822192   3.545358
                   16         17         18         19         20
    16  N    0.000000
    17  C    1.462253   0.000000
    18  C    2.470734   1.527165   0.000000
    19  C    1.469599   2.437942   3.790281   0.000000
    20  C    2.554435   3.050704   4.504488   1.527222   0.000000
    21  H    6.724788   5.877787   4.985703   7.875425   7.815289
    22  H    7.702904   6.609550   5.661476   8.827055   8.768979
    23  H    8.068882   7.125545   6.420299   9.069085   8.770782
    24  H    5.786449   4.555277   3.982297   6.726748   6.560836
    25  H    7.285262   6.093152   5.691680   8.074872   7.649258
    26  H    6.450427   5.517972   5.589399   6.974604   6.231310
    27  H    6.603767   5.864667   5.643289   7.350615   6.783777
    28  H    3.982590   2.992167   3.206982   4.646129   4.231566
    29  H    5.636938   5.149749   5.630080   5.884770   4.897799
    30  H    5.463800   5.959996   6.409000   5.681077   5.089594
    31  H    5.530130   5.830654   6.585353   5.422823   4.393096
    32  H    7.105510   6.988072   7.361254   7.335857   6.359445
    33  H    7.037090   7.078833   7.186021   7.513039   6.845219
    34  H    4.817726   4.429856   3.472590   6.118805   6.404102
    35  H    4.630208   3.737101   2.713794   5.880892   6.087765
    36  H    3.774953   3.435262   2.110003   5.241464   6.021668
    37  H    3.411826   3.894017   3.482601   4.596548   5.179010
    38  H    2.730947   3.354889   2.885937   4.028971   5.071201
    39  H    2.123468   2.694286   3.310555   2.763386   2.829774
    40  H    2.107773   3.364769   3.902098   2.638152   3.359985
    41  H    2.104036   1.097194   2.133795   2.642203   3.312698
    42  H    2.115434   1.090672   2.159095   2.742661   2.764662
    43  H    2.772041   2.135186   1.099318   4.068925   5.064590
    44  H    3.411568   2.160756   1.096392   4.590672   5.101485
    45  H    2.097741   3.373042   4.559724   1.097217   2.146448
    46  H    2.093877   2.687772   4.048422   1.097553   2.143533
    47  H    2.861119   3.460599   4.740418   2.185404   1.093778
    48  H    3.469832   4.031601   5.521372   2.157421   1.095217
    49  H    2.874209   2.810149   4.269622   2.184903   1.094119
                   21         22         23         24         25
    21  H    0.000000
    22  H    1.771325   0.000000
    23  H    1.766141   1.768414   0.000000
    24  H    2.593756   2.450859   3.069372   0.000000
    25  H    3.056951   2.481230   2.428572   1.751939   0.000000
    26  H    3.785432   4.179457   3.455782   2.736372   2.213284
    27  H    2.666303   3.635923   2.495658   3.032283   2.744778
    28  H    3.937238   4.643698   4.662073   2.438385   3.479454
    29  H    4.929068   5.884685   5.045692   4.278219   4.317124
    30  H    6.545758   8.144698   7.327429   6.991774   7.581730
    31  H    6.908551   8.279561   7.421245   6.776810   7.173343
    32  H    5.854876   7.130607   5.857069   6.171198   6.019988
    33  H    5.411916   6.963377   5.731723   6.393132   6.491726
    34  H    2.684930   4.178503   4.378237   3.827447   5.068854
    35  H    2.276541   3.193696   3.816560   2.250655   3.774699
    36  H    4.404218   5.362286   6.119353   4.559499   6.202261
    37  H    5.256271   6.733982   6.844638   5.781432   7.162955
    38  H    6.201471   7.400732   7.863274   6.245842   7.844766
    39  H    5.775759   7.089436   7.016138   5.393494   6.629605
    40  H    7.088948   8.427451   8.500960   6.855899   8.234868
    41  H    6.634805   7.142826   7.797308   4.994532   6.504485
    42  H    5.471381   6.212802   6.531706   4.003783   5.369253
    43  H    5.796840   6.369342   7.294103   4.862773   6.603154
    44  H    4.515611   4.892997   5.815156   3.156489   4.886121
    45  H    8.597972   9.667441   9.855657   7.666889   9.022263
    46  H    8.469691   9.250947   9.639683   7.069736   8.445559
    47  H    7.470224   8.588625   8.403516   6.520419   7.517710
    48  H    8.870234   9.795697   9.760293   7.541075   8.549267
    49  H    7.360971   8.148342   8.186555   5.833139   6.841865
                   26         27         28         29         30
    26  H    0.000000
    27  H    1.756751   0.000000
    28  H    2.529012   3.089877   0.000000
    29  H    2.175395   2.610575   2.661544   0.000000
    30  H    5.839615   5.159883   5.155540   3.997677   0.000000
    31  H    5.143663   4.987695   4.696238   3.007287   1.819698
    32  H    4.046794   3.527365   4.825769   2.453847   3.102219
    33  H    4.893199   3.760779   5.259199   3.593258   2.511127
    34  H    4.992649   3.953123   3.777447   5.110221   5.209425
    35  H    4.084157   3.572349   2.739444   4.733435   6.032956
    36  H    6.315319   5.766875   4.350200   6.402918   6.412753
    37  H    6.490711   5.717976   4.637972   5.749568   4.294893
    38  H    7.388262   6.905601   5.157634   6.797787   5.711797
    39  H    5.403326   5.216083   3.357285   4.181187   3.383267
    40  H    7.144434   6.870657   4.985737   5.909811   4.239293
    41  H    6.070049   6.641167   3.626002   5.849564   6.944587
    42  H    4.555460   5.051426   2.071566   4.129268   5.442811
    43  H    6.656241   6.695553   4.286862   6.718623   7.255589
    44  H    5.110003   5.305243   2.943357   5.558022   6.960256
    45  H    7.847463   8.086806   5.566991   6.582153   5.715683
    46  H    7.498867   8.040428   5.142587   6.598614   6.752634
    47  H    5.921366   6.277102   4.115271   4.321811   4.027127
    48  H    7.048449   7.701495   5.204777   5.620176   5.711202
    49  H    5.484158   6.259311   3.553817   4.388411   5.447830
                   31         32         33         34         35
    31  H    0.000000
    32  H    2.522129   0.000000
    33  H    3.108529   1.819059   0.000000
    34  H    6.018000   5.889942   5.046933   0.000000
    35  H    6.360130   6.171790   5.818733   1.751145   0.000000
    36  H    7.115862   7.607419   6.937401   2.274986   2.461512
    37  H    5.386761   6.296389   5.377346   2.647130   3.767411
    38  H    6.558203   7.734643   7.014933   3.662653   4.270876
    39  H    3.670261   5.173990   4.959476   3.879588   4.157754
    40  H    4.856832   6.648555   6.197202   4.773538   5.311795
    41  H    6.656122   7.849805   8.078127   5.389782   4.493409
    42  H    5.081971   6.103244   6.390170   4.368080   3.563493
    43  H    7.520518   8.413651   8.159413   4.161721   3.537620
    44  H    6.997432   7.469118   7.416679   3.615964   2.352527
    45  H    5.633497   7.749579   7.794619   6.622073   6.627862
    46  H    6.385331   8.240326   8.511781   6.830811   6.389152
    47  H    3.367630   5.467971   5.884557   6.016399   5.930697
    48  H    4.857605   6.973387   7.580001   7.489149   7.172451
    49  H    4.559260   6.190226   6.856838   6.286731   5.696697
                   36         37         38         39         40
    36  H    0.000000
    37  H    2.582078   0.000000
    38  H    2.277502   1.746824   0.000000
    39  H    3.916105   2.487483   3.051654   0.000000
    40  H    4.210486   2.475523   2.396288   1.758749   0.000000
    41  H    4.189831   4.924717   4.155536   3.698198   4.194680
    42  H    3.933105   4.151656   4.046697   2.522591   3.695678
    43  H    2.253802   3.905427   2.826932   4.052130   4.219715
    44  H    2.580641   4.306558   3.900415   4.080025   4.916283
    45  H    5.718121   4.713125   4.105989   3.114257   2.392848
    46  H    5.712965   5.459236   4.644092   3.773158   3.610102
    47  H    5.964234   4.729719   4.965924   2.289144   3.016261
    48  H    7.073344   6.156881   5.989664   3.828254   4.126591
    49  H    5.988205   5.513367   5.446612   3.170828   4.080755
                   41         42         43         44         45
    41  H    0.000000
    42  H    1.755166   0.000000
    43  H    2.371679   3.037909   0.000000
    44  H    2.486497   2.445080   1.751806   0.000000
    45  H    3.629751   3.745189   4.720513   5.468326   0.000000
    46  H    2.423697   3.127384   4.142132   4.744904   1.741856
    47  H    3.999459   3.038502   5.417527   5.369384   2.528441
    48  H    4.110651   3.785011   6.000572   6.104813   2.445036
    49  H    2.942715   2.256115   4.933023   4.646810   3.071801
                   46         47         48         49
    46  H    0.000000
    47  H    3.071146   0.000000
    48  H    2.455695   1.764850   0.000000
    49  H    2.507428   1.776610   1.762199   0.000000
 Stoichiometry    C16H29N3O
 Framework group  C1[X(C16H29N3O)]
 Deg. of freedom   141
 Full point group                 C1      NOp   1
 Largest Abelian subgroup         C1      NOp   1
 Largest concise Abelian subgroup C1      NOp   1
                         Standard orientation:                         
 ---------------------------------------------------------------------
 Center     Atomic      Atomic             Coordinates (Angstroms)
 Number     Number       Type             X           Y           Z
 ---------------------------------------------------------------------
      1          6           0       -3.830218   -2.337912   -0.142550
      2          6           0       -3.018618   -1.924187   -1.358563
      3          6           0       -2.689151   -0.429219   -1.360043
      4          6           0       -1.228123   -0.085529   -0.988607
      5          7           0       -1.019731    1.353047   -1.247517
      6          6           0       -1.164562    2.023755    0.060226
      7          6           0       -0.604018    3.401205    0.261992
      8          6           0       -2.093353    3.192302    0.229150
      9          6           0       -1.041736    0.966296    1.095456
     10          8           0       -1.014001    1.168800    2.297770
     11          7           0       -0.912724   -0.222334    0.416672
     12          6           0       -0.596489   -1.474720    1.076041
     13          6           0        0.892678   -1.833973    1.288281
     14          6           0        1.758351   -0.742232    1.929303
     15          6           0        2.394147    0.215878    0.921059
     16          7           0        3.147081   -0.530122   -0.093259
     17          6           0        2.264787   -1.413230   -0.854743
     18          6           0        1.578443   -2.433576    0.050829
     19          6           0        3.948873    0.346508   -0.958343
     20          6           0        3.185678    1.316853   -1.857438
     21          1           0       -3.338024   -2.071625    0.795535
     22          1           0       -3.992841   -3.420326   -0.147764
     23          1           0       -4.812358   -1.853271   -0.152049
     24          1           0       -2.111668   -2.531667   -1.443211
     25          1           0       -3.621018   -2.151300   -2.247246
     26          1           0       -2.864972   -0.075785   -2.386028
     27          1           0       -3.394452    0.119681   -0.722412
     28          1           0       -0.538729   -0.674634   -1.594906
     29          1           0       -1.696736    1.699467   -1.921218
     30          1           0       -0.146199    3.627500    1.218837
     31          1           0       -0.135960    3.893198   -0.581330
     32          1           0       -2.635933    3.563306   -0.630722
     33          1           0       -2.632795    3.281317    1.166345
     34          1           0       -1.063155   -1.429629    2.068980
     35          1           0       -1.086119   -2.293685    0.546026
     36          1           0        0.852159   -2.656279    2.019337
     37          1           0        1.190777   -0.183333    2.680397
     38          1           0        2.571015   -1.235348    2.481402
     39          1           0        1.632545    0.850940    0.461683
     40          1           0        3.071856    0.879478    1.472013
     41          1           0        2.848554   -1.968537   -1.599516
     42          1           0        1.517466   -0.841025   -1.405795
     43          1           0        2.346408   -3.137368    0.402120
     44          1           0        0.869378   -3.031474   -0.533826
     45          1           0        4.643102    0.920860   -0.332203
     46          1           0        4.588816   -0.281608   -1.591245
     47          1           0        2.565944    2.008031   -1.279033
     48          1           0        3.895563    1.917526   -2.436019
     49          1           0        2.546874    0.791748   -2.573881
 ---------------------------------------------------------------------
 Rotational constants (GHZ):           0.4163297           0.2812203           0.2288115
 Standard basis: 6-31G(d) (6D, 7F)
 There are   358 symmetry adapted cartesian basis functions of A   symmetry.
 There are   358 symmetry adapted basis functions of A   symmetry.
   358 basis functions,   676 primitive gaussians,   358 cartesian basis functions
    77 alpha electrons       77 beta electrons
       nuclear repulsion energy      1778.2976572542 Hartrees.
 NAtoms=   49 NActive=   49 NUniq=   49 SFac= 1.00D+00 NAtFMM=   60 NAOKFM=F Big=F
 Integral buffers will be    131072 words long.
 Raffenetti 2 integral format.
 Two-electron integral symmetry is turned on.
 Nuclear repulsion after empirical dispersion term =     1778.1981915635 Hartrees.
 One-electron integrals computed using PRISM.
 NBasis=   358 RedAO= T EigKep=  1.46D-03  NBF=   358
 NBsUse=   358 1.00D-06 EigRej= -1.00D+00 NBFU=   358
 ExpMin= 1.61D-01 ExpMax= 5.48D+03 ExpMxC= 8.25D+02 IAcc=3 IRadAn=         5 AccDes= 0.00D+00
 Harris functional with IExCor=  402 and IRadAn=       5 diagonalized for initial guess.
 HarFok:  IExCor=  402 AccDes= 0.00D+00 IRadAn=         5 IDoV= 1 UseB2=F ITyADJ=14
 ICtDFT=  3500011 ScaDFX=  1.000000  1.000000  1.000000  1.000000
 FoFCou: FMM=F IPFlag=           0 FMFlag=      100000 FMFlg1=           0
         NFxFlg=           0 DoJE=T BraDBF=F KetDBF=T FulRan=T
         wScrn=  0.000000 ICntrl=       500 IOpCl=  0 I1Cent=   200000004 NGrid=           0
         NMat0=    1 NMatS0=      1 NMatT0=    0 NMatD0=    1 NMtDS0=    0 NMtDT0=    0
 Petite list used in FoFCou.
 Requested convergence on RMS density matrix=1.00D-08 within  32 cycles.
 Requested convergence on MAX density matrix=1.00D-06.
 Requested convergence on             energy=1.00D-06.
 No special actions if energy rises.
 Integral accuracy reduced to 1.0D-05 until final iterations.
 Initial convergence to 1.0D-05 achieved.  Increase integral accuracy.
 SCF Done:  E(RB3LYP) =  -866.703861412     A.U. after   14 cycles
            NFock= 14  Conv=0.91D-08     -V/T= 2.0095
 QCSCF skips out because SCF is already converged.

 **********************************************************************

            Population analysis using the SCF density.

 **********************************************************************

 Orbital symmetries:
       Occupied  (A) (A) (A) (A) (A) (A) (A) (A) (A) (A) (A) (A)
                 (A) (A) (A) (A) (A) (A) (A) (A) (A) (A) (A) (A)
                 (A) (A) (A) (A) (A) (A) (A) (A) (A) (A) (A) (A)
                 (A) (A) (A) (A) (A) (A) (A) (A) (A) (A) (A) (A)
                 (A) (A) (A) (A) (A) (A) (A) (A) (A) (A) (A) (A)
                 (A) (A) (A) (A) (A) (A) (A) (A) (A) (A) (A) (A)
                 (A) (A) (A) (A) (A)
       Virtual   (A) (A) (A) (A) (A) (A) (A) (A) (A) (A) (A) (A)
                 (A) (A) (A) (A) (A) (A) (A) (A) (A) (A) (A) (A)
                 (A) (A) (A) (A) (A) (A) (A) (A) (A) (A) (A) (A)
                 (A) (A) (A) (A) (A) (A) (A) (A) (A) (A) (A) (A)
                 (A) (A) (A) (A) (A) (A) (A) (A) (A) (A) (A) (A)
                 (A) (A) (A) (A) (A) (A) (A) (A) (A) (A) (A) (A)
                 (A) (A) (A) (A) (A) (A) (A) (A) (A) (A) (A) (A)
                 (A) (A) (A) (A) (A) (A) (A) (A) (A) (A) (A) (A)
                 (A) (A) (A) (A) (A) (A) (A) (A) (A) (A) (A) (A)
                 (A) (A) (A) (A) (A) (A) (A) (A) (A) (A) (A) (A)
                 (A) (A) (A) (A) (A) (A) (A) (A) (A) (A) (A) (A)
                 (A) (A) (A) (A) (A) (A) (A) (A) (A) (A) (A) (A)
                 (A) (A) (A) (A) (A) (A) (A) (A) (A) (A) (A) (A)
                 (A) (A) (A) (A) (A) (A) (A) (A) (A) (A) (A) (A)
                 (A) (A) (A) (A) (A) (A) (A) (A) (A) (A) (A) (A)
                 (A) (A) (A) (A) (A) (A) (A) (A) (A) (A) (A) (A)
                 (A) (A) (A) (A) (A) (A) (A) (A) (A) (A) (A) (A)
                 (A) (A) (A) (A) (A) (A) (A) (A) (A) (A) (A) (A)
                 (A) (A) (A) (A) (A) (A) (A) (A) (A) (A) (A) (A)
                 (A) (A) (A) (A) (A) (A) (A) (A) (A) (A) (A) (A)
                 (A) (A) (A) (A) (A) (A) (A) (A) (A) (A) (A) (A)
                 (A) (A) (A) (A) (A) (A) (A) (A) (A) (A) (A) (A)
                 (A) (A) (A) (A) (A) (A) (A) (A) (A) (A) (A) (A)
                 (A) (A) (A) (A) (A)
 The electronic state is 1-A.
 Alpha  occ. eigenvalues --  -19.11104 -14.36138 -14.32801 -14.30888 -10.27916
 Alpha  occ. eigenvalues --  -10.25584 -10.22617 -10.21867 -10.19563 -10.19554
 Alpha  occ. eigenvalues --  -10.19015 -10.18971 -10.18943 -10.18870 -10.18609
 Alpha  occ. eigenvalues --  -10.18481 -10.17785 -10.17627 -10.16721 -10.16225
 Alpha  occ. eigenvalues --   -1.03485  -0.97056  -0.91071  -0.89706  -0.83902
 Alpha  occ. eigenvalues --   -0.80064  -0.79643  -0.74378  -0.73989  -0.71991
 Alpha  occ. eigenvalues --   -0.70679  -0.65995  -0.64020  -0.61867  -0.60845
 Alpha  occ. eigenvalues --   -0.60311  -0.59536  -0.57883  -0.54719  -0.52083
 Alpha  occ. eigenvalues --   -0.51277  -0.49273  -0.48509  -0.47620  -0.46849
 Alpha  occ. eigenvalues --   -0.45660  -0.45156  -0.44879  -0.44236  -0.43237
 Alpha  occ. eigenvalues --   -0.43083  -0.42423  -0.41826  -0.40352  -0.39749
 Alpha  occ. eigenvalues --   -0.39393  -0.38661  -0.38422  -0.37535  -0.37480
 Alpha  occ. eigenvalues --   -0.36499  -0.36146  -0.35146  -0.34920  -0.34681
 Alpha  occ. eigenvalues --   -0.34534  -0.33484  -0.33023  -0.32013  -0.31548
 Alpha  occ. eigenvalues --   -0.30518  -0.30153  -0.29913  -0.25003  -0.24017
 Alpha  occ. eigenvalues --   -0.21167  -0.19759
 Alpha virt. eigenvalues --    0.02190   0.06375   0.07845   0.08708   0.09148
 Alpha virt. eigenvalues --    0.10105   0.10633   0.11725   0.12247   0.12519
 Alpha virt. eigenvalues --    0.13190   0.13977   0.14558   0.14664   0.15038
 Alpha virt. eigenvalues --    0.15212   0.16142   0.16407   0.16790   0.17262
 Alpha virt. eigenvalues --    0.17990   0.18107   0.18616   0.18911   0.19258
 Alpha virt. eigenvalues --    0.19835   0.20474   0.20664   0.20795   0.21016
 Alpha virt. eigenvalues --    0.21503   0.22601   0.23080   0.23623   0.23709
 Alpha virt. eigenvalues --    0.24133   0.25511   0.25631   0.26451   0.27183
 Alpha virt. eigenvalues --    0.27772   0.28033   0.29214   0.29382   0.29831
 Alpha virt. eigenvalues --    0.30294   0.31939   0.32868   0.33337   0.35375
 Alpha virt. eigenvalues --    0.36340   0.42870   0.47631   0.48789   0.49367
 Alpha virt. eigenvalues --    0.50621   0.51580   0.53075   0.53837   0.54120
 Alpha virt. eigenvalues --    0.54813   0.55715   0.55989   0.56460   0.57672
 Alpha virt. eigenvalues --    0.58361   0.58666   0.60361   0.60885   0.61083
 Alpha virt. eigenvalues --    0.61914   0.62415   0.63301   0.64209   0.65237
 Alpha virt. eigenvalues --    0.65678   0.66601   0.67065   0.67526   0.68408
 Alpha virt. eigenvalues --    0.69035   0.70153   0.70189   0.70956   0.72323
 Alpha virt. eigenvalues --    0.73654   0.73880   0.75800   0.77067   0.78635
 Alpha virt. eigenvalues --    0.79120   0.79661   0.80471   0.81541   0.82300
 Alpha virt. eigenvalues --    0.83442   0.84089   0.84520   0.84817   0.85471
 Alpha virt. eigenvalues --    0.85710   0.86596   0.86964   0.87436   0.88393
 Alpha virt. eigenvalues --    0.89264   0.89489   0.89753   0.90125   0.90835
 Alpha virt. eigenvalues --    0.91176   0.91980   0.92221   0.92843   0.93839
 Alpha virt. eigenvalues --    0.94294   0.94834   0.95339   0.95672   0.95817
 Alpha virt. eigenvalues --    0.96658   0.97845   0.98433   0.98700   0.99925
 Alpha virt. eigenvalues --    1.00953   1.02076   1.03016   1.04991   1.05834
 Alpha virt. eigenvalues --    1.07521   1.08376   1.08903   1.11002   1.11871
 Alpha virt. eigenvalues --    1.13279   1.14955   1.15815   1.16240   1.18874
 Alpha virt. eigenvalues --    1.21415   1.21853   1.23521   1.26784   1.28551
 Alpha virt. eigenvalues --    1.31574   1.33438   1.33871   1.36470   1.37363
 Alpha virt. eigenvalues --    1.40193   1.41924   1.43664   1.45136   1.45991
 Alpha virt. eigenvalues --    1.50324   1.50998   1.53641   1.54847   1.55658
 Alpha virt. eigenvalues --    1.58532   1.60701   1.64195   1.65895   1.68431
 Alpha virt. eigenvalues --    1.70638   1.71407   1.73485   1.74674   1.74879
 Alpha virt. eigenvalues --    1.75752   1.77325   1.77541   1.79251   1.79562
 Alpha virt. eigenvalues --    1.80552   1.81823   1.82163   1.84159   1.85157
 Alpha virt. eigenvalues --    1.86443   1.88048   1.89179   1.89670   1.91549
 Alpha virt. eigenvalues --    1.92103   1.92278   1.93486   1.94520   1.95982
 Alpha virt. eigenvalues --    1.97479   1.98757   1.99350   2.00721   2.01212
 Alpha virt. eigenvalues --    2.01699   2.02574   2.03838   2.04198   2.06070
 Alpha virt. eigenvalues --    2.06182   2.07137   2.09195   2.10727   2.11489
 Alpha virt. eigenvalues --    2.14101   2.15778   2.17123   2.18668   2.19509
 Alpha virt. eigenvalues --    2.21171   2.22355   2.22852   2.24436   2.26928
 Alpha virt. eigenvalues --    2.27718   2.28688   2.30230   2.31237   2.32737
 Alpha virt. eigenvalues --    2.33833   2.34494   2.35262   2.36176   2.37390
 Alpha virt. eigenvalues --    2.38194   2.38468   2.39236   2.39994   2.40639
 Alpha virt. eigenvalues --    2.43589   2.46875   2.48471   2.49080   2.50778
 Alpha virt. eigenvalues --    2.52955   2.53269   2.55033   2.57572   2.58807
 Alpha virt. eigenvalues --    2.60508   2.61569   2.62599   2.63933   2.68965
 Alpha virt. eigenvalues --    2.70777   2.72535   2.74947   2.76863   2.77797
 Alpha virt. eigenvalues --    2.78527   2.80795   2.82190   2.84938   2.85551
 Alpha virt. eigenvalues --    2.87408   2.90959   2.91242   2.99760   3.14137
 Alpha virt. eigenvalues --    3.21178   3.99111   4.05183   4.08674   4.13996
 Alpha virt. eigenvalues --    4.18351   4.19239   4.24641   4.27773   4.29149
 Alpha virt. eigenvalues --    4.34410   4.40203   4.42314   4.46774   4.54068
 Alpha virt. eigenvalues --    4.55686   4.58208   4.58902   4.62413   4.71906
 Alpha virt. eigenvalues --    4.79972
          Condensed to atoms (all electrons):
               1          2          3          4          5          6
     1  C    5.070031   0.377495  -0.041324  -0.001103  -0.000056  -0.000003
     2  C    0.377495   5.016114   0.322376  -0.027287   0.005820  -0.000254
     3  C   -0.041324   0.322376   5.201812   0.368181  -0.065695  -0.001501
     4  C   -0.001103  -0.027287   0.368181   4.728763   0.299914  -0.042794
     5  N   -0.000056   0.005820  -0.065695   0.299914   7.010085   0.274801
     6  C   -0.000003  -0.000254  -0.001501  -0.042794   0.274801   5.005921
     7  C   -0.000000   0.000004  -0.000290   0.001892  -0.044160   0.292906
     8  C   -0.000003  -0.000024   0.000981   0.006578  -0.048729   0.261829
     9  C    0.000133  -0.000137  -0.002795  -0.042159  -0.031825   0.351364
    10  O   -0.000001   0.000004   0.000072   0.001979   0.002719  -0.088916
    11  N    0.000960   0.000034  -0.067248   0.309424  -0.041888  -0.121568
    12  C   -0.002320  -0.000514  -0.003032  -0.037592   0.003611   0.009490
    13  C    0.000129   0.000044  -0.000205  -0.000334  -0.000078  -0.000265
    14  C   -0.000001  -0.000001   0.000001  -0.000161   0.000011  -0.000420
    15  C   -0.000000   0.000000  -0.000006   0.000281  -0.000475  -0.000230
    16  N    0.000000  -0.000000  -0.000001   0.000194  -0.000007  -0.000005
    17  C   -0.000000   0.000004   0.000072  -0.002178  -0.000218   0.000009
    18  C   -0.000001  -0.000088   0.000033   0.001299  -0.000040   0.000019
    19  C    0.000000   0.000000  -0.000000   0.000007  -0.000001  -0.000002
    20  C    0.000000   0.000000  -0.000000  -0.000014  -0.000173  -0.000009
    21  H    0.380731  -0.041067  -0.002528   0.000342  -0.000058  -0.000010
    22  H    0.372526  -0.032552   0.004858  -0.000039   0.000002   0.000000
    23  H    0.378742  -0.033377  -0.006243   0.000047   0.000003  -0.000002
    24  H   -0.040403   0.383006  -0.049818  -0.005874   0.000234  -0.000002
    25  H   -0.040139   0.373611  -0.030932   0.002847  -0.000173   0.000005
    26  H    0.004897  -0.037542   0.353662  -0.030857  -0.006278   0.000149
    27  H   -0.007659  -0.041121   0.365479  -0.025165  -0.003155   0.002774
    28  H    0.000039  -0.001095  -0.075174   0.374611  -0.045378   0.002919
    29  H    0.000005   0.000367   0.001110  -0.049318   0.310975  -0.031168
    30  H   -0.000000  -0.000000   0.000002   0.000042   0.002120  -0.029881
    31  H   -0.000000  -0.000000  -0.000002   0.000258  -0.000293  -0.019606
    32  H   -0.000000   0.000001   0.000018   0.000029  -0.005046  -0.020084
    33  H   -0.000000   0.000002  -0.000005  -0.000182   0.002970  -0.024405
    34  H   -0.000302  -0.000014   0.000249   0.004331  -0.000182   0.000847
    35  H   -0.000215   0.001187   0.000736  -0.002714   0.000099  -0.000297
    36  H    0.000002   0.000000   0.000006  -0.000052   0.000002   0.000004
    37  H   -0.000000   0.000000  -0.000002  -0.000004  -0.000010   0.000403
    38  H    0.000000   0.000000   0.000000   0.000002  -0.000000   0.000001
    39  H   -0.000000  -0.000001   0.000081  -0.000253   0.001690   0.000404
    40  H   -0.000000  -0.000000   0.000000   0.000001   0.000006   0.000006
    41  H   -0.000000   0.000000  -0.000001   0.000098  -0.000000   0.000000
    42  H    0.000000  -0.000013   0.000165  -0.004300   0.001498  -0.000028
    43  H    0.000000   0.000001  -0.000001  -0.000029  -0.000000  -0.000000
    44  H   -0.000020  -0.000097  -0.000033   0.000060   0.000003   0.000001
    45  H    0.000000  -0.000000  -0.000000   0.000000  -0.000000  -0.000000
    46  H    0.000000   0.000000  -0.000000   0.000001  -0.000000   0.000000
    47  H    0.000000  -0.000000   0.000001   0.000037   0.000826   0.000115
    48  H    0.000000  -0.000000   0.000000   0.000001   0.000010  -0.000000
    49  H   -0.000000  -0.000000  -0.000000   0.000015   0.000353  -0.000000
               7          8          9         10         11         12
     1  C   -0.000000  -0.000003   0.000133  -0.000001   0.000960  -0.002320
     2  C    0.000004  -0.000024  -0.000137   0.000004   0.000034  -0.000514
     3  C   -0.000290   0.000981  -0.002795   0.000072  -0.067248  -0.003032
     4  C    0.001892   0.006578  -0.042159   0.001979   0.309424  -0.037592
     5  N   -0.044160  -0.048729  -0.031825   0.002719  -0.041888   0.003611
     6  C    0.292906   0.261829   0.351364  -0.088916  -0.121568   0.009490
     7  C    5.178995   0.212963  -0.031422   0.000966   0.003203  -0.000071
     8  C    0.212963   5.233508  -0.016100  -0.000049   0.002816  -0.000231
     9  C   -0.031422  -0.016100   4.340819   0.576780   0.252146  -0.020184
    10  O    0.000966  -0.000049   0.576780   8.107284  -0.088996   0.003382
    11  N    0.003203   0.002816   0.252146  -0.088996   7.130600   0.256770
    12  C   -0.000071  -0.000231  -0.020184   0.003382   0.256770   4.991543
    13  C    0.000024  -0.000006  -0.003882  -0.001012  -0.049569   0.367390
    14  C   -0.000014   0.000004   0.002518  -0.004103  -0.002858  -0.040980
    15  C    0.000035   0.000003  -0.000055  -0.000085  -0.000061  -0.004348
    16  N    0.000000  -0.000000   0.000014   0.000005  -0.000256  -0.000207
    17  C   -0.000001  -0.000000   0.000068   0.000000   0.002050  -0.002121
    18  C   -0.000000   0.000000  -0.000217  -0.000010  -0.000956  -0.044379
    19  C   -0.000000  -0.000000   0.000005  -0.000000   0.000020  -0.000030
    20  C   -0.000074   0.000002  -0.000011   0.000000  -0.000010   0.000004
    21  H   -0.000000   0.000002   0.000182  -0.000029   0.000291   0.001668
    22  H    0.000000  -0.000000  -0.000001  -0.000000   0.000008   0.000003
    23  H    0.000000   0.000000  -0.000010   0.000000  -0.000017   0.000074
    24  H    0.000000  -0.000001  -0.000039  -0.000000  -0.000174  -0.000588
    25  H   -0.000000   0.000000   0.000004  -0.000000  -0.000084   0.000068
    26  H    0.000004  -0.000118   0.000089  -0.000001   0.005114  -0.000009
    27  H    0.000021   0.000663   0.001917  -0.000149  -0.003546  -0.000131
    28  H    0.000145  -0.000347   0.003152  -0.000080  -0.056673   0.002297
    29  H    0.001818  -0.007581   0.004904  -0.000066   0.003570  -0.000110
    30  H    0.368483  -0.013497  -0.000819   0.006422   0.000426  -0.000019
    31  H    0.369000  -0.020684   0.002010   0.000119  -0.000046  -0.000000
    32  H   -0.024232   0.372192   0.001783   0.000059  -0.000011   0.000001
    33  H   -0.013812   0.361102  -0.002848   0.005904   0.000461  -0.000011
    34  H   -0.000023   0.000012  -0.002339   0.010945  -0.045374   0.368890
    35  H   -0.000001   0.000009   0.003489   0.000270  -0.041234   0.365455
    36  H   -0.000000   0.000000   0.000071  -0.000046   0.004994  -0.042653
    37  H   -0.000034   0.000001   0.002187   0.010785  -0.003283  -0.004187
    38  H   -0.000000   0.000000   0.000000   0.000089  -0.000105   0.005359
    39  H    0.000676   0.000156   0.001804  -0.000471   0.000933   0.001423
    40  H   -0.000015   0.000001  -0.000031  -0.000031   0.000143  -0.000014
    41  H   -0.000000   0.000000  -0.000001  -0.000000   0.000018  -0.000099
    42  H   -0.000004   0.000004  -0.000032  -0.000002  -0.000211   0.002177
    43  H    0.000000  -0.000000   0.000003   0.000000  -0.000107   0.005436
    44  H    0.000000  -0.000000  -0.000012  -0.000000  -0.000239  -0.008289
    45  H   -0.000000  -0.000000   0.000000   0.000000   0.000000  -0.000000
    46  H    0.000000   0.000000  -0.000000   0.000000   0.000000   0.000000
    47  H    0.000361   0.000004  -0.000048  -0.000000  -0.000006  -0.000000
    48  H   -0.000001  -0.000000   0.000000   0.000000  -0.000000  -0.000000
    49  H   -0.000005   0.000000  -0.000002   0.000000  -0.000011  -0.000001
              13         14         15         16         17         18
     1  C    0.000129  -0.000001  -0.000000   0.000000  -0.000000  -0.000001
     2  C    0.000044  -0.000001   0.000000  -0.000000   0.000004  -0.000088
     3  C   -0.000205   0.000001  -0.000006  -0.000001   0.000072   0.000033
     4  C   -0.000334  -0.000161   0.000281   0.000194  -0.002178   0.001299
     5  N   -0.000078   0.000011  -0.000475  -0.000007  -0.000218  -0.000040
     6  C   -0.000265  -0.000420  -0.000230  -0.000005   0.000009   0.000019
     7  C    0.000024  -0.000014   0.000035   0.000000  -0.000001  -0.000000
     8  C   -0.000006   0.000004   0.000003  -0.000000  -0.000000   0.000000
     9  C   -0.003882   0.002518  -0.000055   0.000014   0.000068  -0.000217
    10  O   -0.001012  -0.004103  -0.000085   0.000005   0.000000  -0.000010
    11  N   -0.049569  -0.002858  -0.000061  -0.000256   0.002050  -0.000956
    12  C    0.367390  -0.040980  -0.004348  -0.000207  -0.002121  -0.044379
    13  C    4.961387   0.376543  -0.027602  -0.017603  -0.030371   0.376503
    14  C    0.376543   5.079577   0.372836  -0.045030  -0.015697  -0.052518
    15  C   -0.027602   0.372836   4.951756   0.305950  -0.045686  -0.015907
    16  N   -0.017603  -0.045030   0.305950   6.839240   0.312159  -0.042559
    17  C   -0.030371  -0.015697  -0.045686   0.312159   4.949307   0.373842
    18  C    0.376503  -0.052518  -0.015907  -0.042559   0.373842   5.076776
    19  C    0.000411   0.004576  -0.051170   0.347819  -0.051110   0.004685
    20  C   -0.000133   0.000140  -0.007425  -0.057113  -0.009455   0.000175
    21  H    0.000069   0.000000  -0.000000  -0.000000  -0.000000   0.000005
    22  H   -0.000003   0.000000   0.000000   0.000000   0.000000   0.000000
    23  H   -0.000002   0.000000  -0.000000  -0.000000   0.000000  -0.000000
    24  H   -0.000041   0.000002   0.000000   0.000000  -0.000016   0.000010
    25  H   -0.000001   0.000000  -0.000000  -0.000000   0.000000   0.000000
    26  H    0.000006  -0.000000   0.000000  -0.000000  -0.000002   0.000000
    27  H    0.000006  -0.000000   0.000000   0.000000  -0.000001  -0.000000
    28  H    0.000955   0.000066   0.000117  -0.000181   0.000180   0.000054
    29  H   -0.000003   0.000000  -0.000000  -0.000000  -0.000001   0.000001
    30  H    0.000002   0.000003  -0.000024   0.000000  -0.000000  -0.000000
    31  H   -0.000000   0.000000  -0.000025   0.000000   0.000000  -0.000000
    32  H    0.000000  -0.000000  -0.000000   0.000000   0.000000  -0.000000
    33  H    0.000000   0.000000  -0.000000   0.000000  -0.000000   0.000000
    34  H   -0.040680  -0.003079  -0.000025  -0.000006  -0.000083   0.005197
    35  H   -0.044025   0.004909  -0.000115   0.000008   0.000077  -0.007744
    36  H    0.366704  -0.040947   0.005410  -0.000161   0.005490  -0.044240
    37  H   -0.034729   0.358648  -0.029219   0.003707  -0.000067   0.004870
    38  H   -0.036400   0.359008  -0.039209   0.003282  -0.000926  -0.000856
    39  H   -0.007978  -0.046468   0.353124  -0.051397  -0.010208   0.000719
    40  H    0.004708  -0.027413   0.370973  -0.040338   0.006392   0.000110
    41  H    0.004845   0.000006   0.006410  -0.041285   0.370573  -0.027135
    42  H   -0.007753   0.000555  -0.009925  -0.051591   0.347734  -0.050975
    43  H   -0.035820   0.000312  -0.001116   0.003528  -0.037214   0.362833
    44  H   -0.039503   0.005399  -0.000075   0.003967  -0.033687   0.356903
    45  H    0.000021   0.000103  -0.004563  -0.040914   0.006295  -0.000213
    46  H    0.000024  -0.000227   0.006265  -0.042931  -0.004096   0.000067
    47  H    0.000012  -0.000076   0.003149  -0.003385  -0.000339  -0.000023
    48  H    0.000001  -0.000001   0.000142   0.004096   0.000218  -0.000002
    49  H    0.000012  -0.000017  -0.000275  -0.003658   0.003212  -0.000066
              19         20         21         22         23         24
     1  C    0.000000   0.000000   0.380731   0.372526   0.378742  -0.040403
     2  C    0.000000   0.000000  -0.041067  -0.032552  -0.033377   0.383006
     3  C   -0.000000  -0.000000  -0.002528   0.004858  -0.006243  -0.049818
     4  C    0.000007  -0.000014   0.000342  -0.000039   0.000047  -0.005874
     5  N   -0.000001  -0.000173  -0.000058   0.000002   0.000003   0.000234
     6  C   -0.000002  -0.000009  -0.000010   0.000000  -0.000002  -0.000002
     7  C   -0.000000  -0.000074  -0.000000   0.000000   0.000000   0.000000
     8  C   -0.000000   0.000002   0.000002  -0.000000   0.000000  -0.000001
     9  C    0.000005  -0.000011   0.000182  -0.000001  -0.000010  -0.000039
    10  O   -0.000000   0.000000  -0.000029  -0.000000   0.000000  -0.000000
[...]
 
   511    H   31  S      Val( 1S)     0.39227       0.12839
   512    H   31  S      Ryd( 2S)     0.00036       0.47345
   513    H   31  S      Ryd( 4S)     0.00030       1.71521
   514    H   31  S      Ryd( 3S)     0.00002       1.08165
   515    H   31  px     Ryd( 2p)     0.00009       2.29492
   516    H   31  py     Ryd( 2p)     0.00011       2.22748
   517    H   31  pz     Ryd( 2p)     0.00009       2.55957
 
   518    H   32  S      Val( 1S)     0.39308       0.12302
   519    H   32  S      Ryd( 2S)     0.00069       0.39084
   520    H   32  S      Ryd( 4S)     0.00028       1.49079
   521    H   32  S      Ryd( 3S)     0.00003       1.22960
   522    H   32  px     Ryd( 2p)     0.00009       2.29712
   523    H   32  py     Ryd( 2p)     0.00010       2.26688
   524    H   32  pz     Ryd( 2p)     0.00008       2.48173
 
   525    H   33  S      Val( 1S)     0.39093       0.13440
   526    H   33  S      Ryd( 2S)     0.00025       0.41172
   527    H   33  S      Ryd( 4S)     0.00035       1.64256
   528    H   33  S      Ryd( 3S)     0.00004       1.26746
   529    H   33  px     Ryd( 2p)     0.00009       2.25395
   530    H   33  py     Ryd( 2p)     0.00011       1.96422
   531    H   33  pz     Ryd( 2p)     0.00008       2.81552
 
   532    H   34  S      Val( 1S)     0.39118       0.13330
   533    H   34  S      Ryd( 2S)     0.00038       0.54865
   534    H   34  S      Ryd( 4S)     0.00048       2.11146
   535    H   34  S      Ryd( 3S)     0.00001       0.93882
   536    H   34  px     Ryd( 2p)     0.00009       2.14132
   537    H   34  py     Ryd( 2p)     0.00006       1.99461
   538    H   34  pz     Ryd( 2p)     0.00014       2.78268
 
   539    H   35  S      Val( 1S)     0.39531       0.12426
   540    H   35  S      Ryd( 3S)     0.00088       0.78344
   541    H   35  S      Ryd( 4S)     0.00040       1.91092
   542    H   35  S      Ryd( 2S)     0.00001       0.73772
   543    H   35  px     Ryd( 2p)     0.00013       2.40372
   544    H   35  py     Ryd( 2p)     0.00010       2.31462
   545    H   35  pz     Ryd( 2p)     0.00008       2.19925
 
   546    H   36  S      Val( 1S)     0.39752       0.13571
   547    H   36  S      Ryd( 2S)     0.00041       0.39456
   548    H   36  S      Ryd( 4S)     0.00037       1.73490
   549    H   36  S      Ryd( 3S)     0.00002       1.28492
   550    H   36  px     Ryd( 2p)     0.00007       2.09681
   551    H   36  py     Ryd( 2p)     0.00015       2.75301
   552    H   36  pz     Ryd( 2p)     0.00011       2.15529
 
   553    H   37  S      Val( 1S)     0.39261       0.14985
   554    H   37  S      Ryd( 2S)     0.00015       0.50876
   555    H   37  S      Ryd( 4S)     0.00035       1.99925
   556    H   37  S      Ryd( 3S)     0.00001       1.00712
   557    H   37  px     Ryd( 2p)     0.00009       2.08122
   558    H   37  py     Ryd( 2p)     0.00008       2.01589
   559    H   37  pz     Ryd( 2p)     0.00013       2.66857
 
   560    H   38  S      Val( 1S)     0.40161       0.13693
   561    H   38  S      Ryd( 2S)     0.00031       0.49734
   562    H   38  S      Ryd( 4S)     0.00055       1.73539
   563    H   38  S      Ryd( 3S)     0.00002       1.13345
   564    H   38  px     Ryd( 2p)     0.00011       2.34680
   565    H   38  py     Ryd( 2p)     0.00011       2.35475
   566    H   38  pz     Ryd( 2p)     0.00007       2.12345
 
   567    H   39  S      Val( 1S)     0.41089       0.14158
   568    H   39  S      Ryd( 2S)     0.00112       0.96304
   569    H   39  S      Ryd( 3S)     0.00064       2.04301
   570    H   39  S      Ryd( 4S)     0.00018       2.84038
   571    H   39  px     Ryd( 2p)     0.00011       2.39805
   572    H   39  py     Ryd( 2p)     0.00014       2.67132
   573    H   39  pz     Ryd( 2p)     0.00006       2.00634
 
   574    H   40  S      Val( 1S)     0.40663       0.13000
   575    H   40  S      Ryd( 2S)     0.00024       0.68468
   576    H   40  S      Ryd( 4S)     0.00035       1.90015
   577    H   40  S      Ryd( 3S)     0.00001       0.93561
   578    H   40  px     Ryd( 2p)     0.00013       2.53350
   579    H   40  py     Ryd( 2p)     0.00009       2.06711
   580    H   40  pz     Ryd( 2p)     0.00011       2.33951
 
   581    H   41  S      Val( 1S)     0.40476       0.13133
   582    H   41  S      Ryd( 2S)     0.00048       0.52718
   583    H   41  S      Ryd( 4S)     0.00037       1.63245
   584    H   41  S      Ryd( 3S)     0.00002       1.17970
   585    H   41  px     Ryd( 2p)     0.00008       2.11452
   586    H   41  py     Ryd( 2p)     0.00009       2.03664
   587    H   41  pz     Ryd( 2p)     0.00015       2.67570
 
   588    H   42  S      Val( 1S)     0.40681       0.14859
   589    H   42  S      Ryd( 2S)     0.00215       0.70783
   590    H   42  S      Ryd( 3S)     0.00076       2.84553
   591    H   42  S      Ryd( 4S)     0.00029       3.83024
   592    H   42  px     Ryd( 2p)     0.00010       2.45533
   593    H   42  py     Ryd( 2p)     0.00018       2.50378
   594    H   42  pz     Ryd( 2p)     0.00007       2.14397
 
   595    H   43  S      Val( 1S)     0.39817       0.14035
   596    H   43  S      Ryd( 2S)     0.00073       0.46335
   597    H   43  S      Ryd( 4S)     0.00054       1.86266
   598    H   43  S      Ryd( 3S)     0.00002       1.06794
   599    H   43  px     Ryd( 2p)     0.00010       2.33670
   600    H   43  py     Ryd( 2p)     0.00010       2.54372
   601    H   43  pz     Ryd( 2p)     0.00007       1.99268
 
   602    H   44  S      Val( 1S)     0.39866       0.13332
   603    H   44  S      Ryd( 2S)     0.00050       0.53137
   604    H   44  S      Ryd( 4S)     0.00034       1.77334
   605    H   44  S      Ryd( 3S)     0.00002       1.12359
   606    H   44  px     Ryd( 2p)     0.00010       2.37326
   607    H   44  py     Ryd( 2p)     0.00008       2.06763
   608    H   44  pz     Ryd( 2p)     0.00012       2.30702
 
   609    H   45  S      Val( 1S)     0.41073       0.12308
   610    H   45  S      Ryd( 2S)     0.00022       0.44680
   611    H   45  S      Ryd( 4S)     0.00042       1.69158
   612    H   45  S      Ryd( 3S)     0.00001       1.19686
   613    H   45  px     Ryd( 2p)     0.00012       2.51678
   614    H   45  py     Ryd( 2p)     0.00008       1.95140
   615    H   45  pz     Ryd( 2p)     0.00011       2.25510
 
   616    H   46  S      Val( 1S)     0.40840       0.12449
   617    H   46  S      Ryd( 2S)     0.00024       0.49456
   618    H   46  S      Ryd( 4S)     0.00042       1.61741
   619    H   46  S      Ryd( 3S)     0.00002       1.18457
   620    H   46  px     Ryd( 2p)     0.00008       2.10803
   621    H   46  py     Ryd( 2p)     0.00009       2.00342
   622    H   46  pz     Ryd( 2p)     0.00014       2.60002
 
   623    H   47  S      Val( 1S)     0.40201       0.13010
   624    H   47  S      Ryd( 2S)     0.00052       0.60606
   625    H   47  S      Ryd( 4S)     0.00022       2.01895
   626    H   47  S      Ryd( 3S)     0.00001       0.81413
   627    H   47  px     Ryd( 2p)     0.00007       1.96702
   628    H   47  py     Ryd( 2p)     0.00009       2.09524
   629    H   47  pz     Ryd( 2p)     0.00011       2.56914
 
   630    H   48  S      Val( 1S)     0.40305       0.12233
   631    H   48  S      Ryd( 2S)     0.00035       0.45300
   632    H   48  S      Ryd( 4S)     0.00025       1.65175
   633    H   48  S      Ryd( 3S)     0.00002       0.98389
   634    H   48  px     Ryd( 2p)     0.00009       2.26945
   635    H   48  py     Ryd( 2p)     0.00011       2.22998
   636    H   48  pz     Ryd( 2p)     0.00008       2.06155
 
   637    H   49  S      Val( 1S)     0.39263       0.14337
   638    H   49  S      Ryd( 2S)     0.00069       0.57378
   639    H   49  S      Ryd( 4S)     0.00039       1.98390
   640    H   49  S      Ryd( 3S)     0.00001       0.80688
   641    H   49  px     Ryd( 2p)     0.00013       2.48747
   642    H   49  py     Ryd( 2p)     0.00006       1.91327
   643    H   49  pz     Ryd( 2p)     0.00007       2.27935

 WARNING:  Population inversion found on atom  C    1
           Population inversion found on atom  C    2
           Population inversion found on atom  C    3
           Population inversion found on atom  C    4
           Population inversion found on atom  N    5
           Population inversion found on atom  C    6
           Population inversion found on atom  C    7
           Population inversion found on atom  C    8
           Population inversion found on atom  C    9
           Population inversion found on atom  O   10
           Population inversion found on atom  N   11
           Population inversion found on atom  C   13
           Population inversion found on atom  C   14
           Population inversion found on atom  C   15
           Population inversion found on atom  N   16
           Population inversion found on atom  C   17
           Population inversion found on atom  C   18
           Population inversion found on atom  C   19
           Population inversion found on atom  C   20
           Population inversion found on atom  H   21
           Population inversion found on atom  H   22
           Population inversion found on atom  H   23
           Population inversion found on atom  H   24
           Population inversion found on atom  H   25
           Population inversion found on atom  H   26
           Population inversion found on atom  H   27
           Population inversion found on atom  H   30
           Population inversion found on atom  H   31
           Population inversion found on atom  H   32
           Population inversion found on atom  H   33
           Population inversion found on atom  H   34
           Population inversion found on atom  H   35
           Population inversion found on atom  H   36
           Population inversion found on atom  H   37
           Population inversion found on atom  H   38
           Population inversion found on atom  H   40
           Population inversion found on atom  H   41
           Population inversion found on atom  H   43
           Population inversion found on atom  H   44
           Population inversion found on atom  H   45
           Population inversion found on atom  H   46
           Population inversion found on atom  H   47
           Population inversion found on atom  H   48
           Population inversion found on atom  H   49


 Summary of Natural Population Analysis:                  
                                                          
                                       Natural Population 
                Natural  -----------------------------------------------
    Atom  No    Charge         Core      Valence    Rydberg      Total
 -----------------------------------------------------------------------
      C    1   -0.28470      0.99966     2.27950    0.00554     3.28470
      C    2   -0.19403      0.99964     2.18595    0.00844     3.19403
      C    3   -0.19964      0.99960     2.18951    0.01054     3.19964
      C    4    0.10178      0.99959     1.88358    0.01504     2.89822
      N    5   -0.33242      0.99972     2.82026    0.01244     3.83242
      C    6    0.01145      0.99948     1.97479    0.01427     2.98855
      C    7   -0.19255      0.99959     2.18367    0.00928     3.19255
      C    8   -0.19424      0.99960     2.18600    0.00865     3.19424
      C    9    0.34955      0.99954     1.62636    0.02454     2.65045
      O   10   -0.32825      0.99988     3.32373    0.00464     4.32825
      N   11   -0.26141      0.99961     2.74981    0.01200     3.76141
      C   12   -0.08642      0.99958     2.07383    0.01302     3.08642
      C   13   -0.11052      0.99958     2.09994    0.01100     3.11052
      C   14   -0.19410      0.99961     2.18474    0.00974     3.19410
      C   15   -0.08644      0.99961     2.07692    0.00992     3.08644
      N   16   -0.28248      0.99972     2.77052    0.01224     3.78248
      C   17   -0.09234      0.99960     2.08159    0.01115     3.09234
      C   18   -0.19376      0.99961     2.18418    0.00997     3.19376
      C   19   -0.08037      0.99963     2.06976    0.01097     3.08037
      C   20   -0.30313      0.99966     2.29886    0.00460     3.30313
      H   21    0.09685      0.00000     0.40185    0.00130     0.40315
      H   22    0.09858      0.00000     0.40057    0.00085     0.40142
      H   23    0.09620      0.00000     0.40290    0.00089     0.40380
      H   24    0.09427      0.00000     0.40397    0.00176     0.40573
      H   25    0.10166      0.00000     0.39642    0.00192     0.39834
      H   26    0.10535      0.00000     0.39167    0.00298     0.39465
      H   27    0.09728      0.00000     0.40090    0.00181     0.40272
      H   28    0.09321      0.00000     0.40431    0.00248     0.40679
      H   29    0.18330      0.00000     0.31271    0.00399     0.31670
      H   30    0.10941      0.00000     0.38963    0.00096     0.39059
      H   31    0.10677      0.00000     0.39227    0.00096     0.39323
      H   32    0.10565      0.00000     0.39308    0.00128     0.39435
      H   33    0.10815      0.00000     0.39093    0.00092     0.39185
      H   34    0.10766      0.00000     0.39118    0.00116     0.39234
      H   35    0.10309      0.00000     0.39531    0.00160     0.39691
      H   36    0.10136      0.00000     0.39752    0.00112     0.39864
      H   37    0.10658      0.00000     0.39261    0.00081     0.39342
      H   38    0.09721      0.00000     0.40161    0.00117     0.40279
      H   39    0.08686      0.00000     0.41089    0.00225     0.41314
      H   40    0.09245      0.00000     0.40663    0.00092     0.40755
      H   41    0.09405      0.00000     0.40476    0.00118     0.40595
      H   42    0.08964      0.00000     0.40681    0.00355     0.41036
      H   43    0.10025      0.00000     0.39817    0.00157     0.39975
      H   44    0.10019      0.00000     0.39866    0.00115     0.39981
      H   45    0.08831      0.00000     0.41073    0.00096     0.41169
      H   46    0.09062      0.00000     0.40840    0.00098     0.40938
      H   47    0.09697      0.00000     0.40201    0.00101     0.40303
      H   48    0.09604      0.00000     0.40305    0.00091     0.40396
      H   49    0.10601      0.00000     0.39263    0.00135     0.39399
 =======================================================================
   * Total *   -0.00000     19.99249    56.74569    0.26182    77.00000

                                 Natural Population      
 --------------------------------------------------------
   Core                      19.99249 ( 99.9624% of  20)
   Valence                   56.74569 ( 99.5538% of  57)
   Natural Minimal Basis     76.73818 ( 99.6600% of  77)
   Natural Rydberg Basis      0.26182 (  0.3400% of  77)
 --------------------------------------------------------

    Atom  No          Natural Electron Configuration
 ----------------------------------------------------------------------------
      C    1      [core]2S( 0.54)2p( 1.74)
      C    2      [core]2S( 0.51)2p( 1.68)
      C    3      [core]2S( 0.51)2p( 1.68)
      C    4      [core]2S( 0.46)2p( 1.42)3p( 0.01)
      N    5      [core]2S( 0.67)2p( 2.15)3p( 0.01)
      C    6      [core]2S( 0.43)2p( 1.55)3p( 0.01)
      C    7      [core]2S( 0.50)2p( 1.68)
      C    8      [core]2S( 0.51)2p( 1.68)
      C    9      [core]2S( 0.38)2p( 1.25)3p( 0.01)3d( 0.01)
      O   10      [core]2S( 0.85)2p( 2.48)
      N   11      [core]2S( 0.61)2p( 2.14)3p( 0.01)
      C   12      [core]2S( 0.49)2p( 1.58)3p( 0.01)
      C   13      [core]2S( 0.48)2p( 1.62)3p( 0.01)
      C   14      [core]2S( 0.51)2p( 1.68)3p( 0.01)
      C   15      [core]2S( 0.50)2p( 1.58)3p( 0.01)
      N   16      [core]2S( 0.64)2p( 2.13)3p( 0.01)
      C   17      [core]2S( 0.50)2p( 1.59)
      C   18      [core]2S( 0.51)2p( 1.68)
      C   19      [core]2S( 0.50)2p( 1.57)
      C   20      [core]2S( 0.55)2p( 1.75)
      H   21            1S( 0.40)
      H   22            1S( 0.40)
      H   23            1S( 0.40)
      H   24            1S( 0.40)
      H   25            1S( 0.40)
      H   26            1S( 0.39)
      H   27            1S( 0.40)
      H   28            1S( 0.40)
      H   29            1S( 0.31)
      H   30            1S( 0.39)
      H   31            1S( 0.39)
      H   32            1S( 0.39)
      H   33            1S( 0.39)
      H   34            1S( 0.39)
      H   35            1S( 0.40)
      H   36            1S( 0.40)
      H   37            1S( 0.39)
      H   38            1S( 0.40)
      H   39            1S( 0.41)
      H   40            1S( 0.41)
      H   41            1S( 0.40)
      H   42            1S( 0.41)
      H   43            1S( 0.40)
      H   44            1S( 0.40)
      H   45            1S( 0.41)
      H   46            1S( 0.41)
      H   47            1S( 0.40)
      H   48            1S( 0.40)
      H   49            1S( 0.39)


 NBO analysis skipped by request.
 1\1\GINC-NODE364\SP\UB3LYP\6-311++G(d,p)\C16H29N3O1(1-,2)\VSC10255\14-
 Dec-2020\0\\# B3LYP/6-311++G(d,p) empiricaldispersion=gd3bj scf=xqc po
 p=npa geom=check\\CID_83249415_JID_10733_Energie_anion\\-1,2\C,0,1.453
 2143691,0.3647302106,0.1357315975\C,0,0.4469514672,-0.6552498489,0.680
 4022914\C,0,0.3530653592,-0.6683637119,2.2172252662\C,0,-0.7031034666,
 0.2527128057,2.8603301367\N,0,-0.6234537103,0.2234098044,4.3356321137\
 C,0,0.2450565411,1.3301015495,4.7092157718\C,0,0.3565736629,1.84471382
 58,6.1127181105\C,0,1.5551618202,1.2006430161,5.4569040963\C,0,0.14676
 37871,2.3133408965,3.5816936003\O,0,0.560689283,3.4652425112,3.5704366
 761\N,0,-0.5306356329,1.6767772026,2.5807831055\C,0,-1.0349510261,2.37
 46093199,1.405682537\C,0,-2.4262521227,3.0367023766,1.5053043065\C,0,-
 2.5097284391,4.2560327216,2.4488740269\C,0,-2.7955551343,3.9008121423,
 3.9107736345\N,0,-3.9765418108,3.045638081,4.0199475608\C,0,-3.7910163
 401,1.789749149,3.2957856176\C,0,-3.5872682236,2.0665715008,1.80220760
 24\C,0,-4.4135602853,2.8495466418,5.4009299682\C,0,-3.4115184745,2.180
 8624031,6.3598459611\H,0,1.243604172,1.3791740799,0.4850158086\H,0,1.4
 522123905,0.3766294152,-0.9598457608\H,0,2.4673932828,0.1108168969,0.4
 657284305\H,0,-0.5486899616,-0.4820827482,0.249090841\H,0,0.7448888206
 ,-1.6530474861,0.3360970079\H,0,0.1085832613,-1.6847606955,2.557469280
 1\H,0,1.3319012089,-0.4185773851,2.6481649248\H,0,-1.7014562427,-0.061
 3560487,2.5336281327\H,0,-0.2494840137,-0.6688269085,4.6500015974\H,0,
 0.3634181754,2.9236680819,6.2373192412\H,0,-0.1717954725,1.2843417119,
 6.8785369372\H,0,1.8453470226,0.2057701873,5.7870914316\H,0,2.37475812
 49,1.84047442,5.1418204883\H,0,-0.2985069167,3.14778707,1.1637608761\H
 ,0,-1.0528206282,1.6639441052,0.5754453642\H,0,-2.5783069577,3.4176828
 556,0.4844431433\H,0,-1.5852777487,4.8403851652,2.3944466806\H,0,-3.33
 09281554,4.8926426009,2.0968709586\H,0,-1.9056561204,3.4464488857,4.36
 94442209\H,0,-2.9943973019,4.8247001618,4.4684371214\H,0,-4.6988101921
 ,1.1869888996,3.4262324889\H,0,-2.9546596249,1.2006374388,3.7032330002
 \H,0,-4.5124232482,2.5182685255,1.4241877632\H,0,-3.4477567217,1.12086
 3465,1.2606432262\H,0,-4.6904587714,3.8341867573,5.8009915868\H,0,-5.3
 353632942,2.2540017384,5.3679344973\H,0,-2.5257715898,2.8055396879,6.5
 140365398\H,0,-3.8797096603,2.0189148758,7.3379022984\H,0,-3.067245460
 3,1.2132116488,5.9806278926\\Version=ES64L-G16RevA.03\State=2-A\HF=-86
 6.9405179\S2=0.750039\S2-1=0.\S2A=0.75\RMSD=4.276e-09\Dipole=-0.723440
 6,2.5309807,1.2583927\Quadrupole=4.2014563,-6.1218733,1.9204171,10.318
 848,1.7900199,-5.765642\PG=C01 [X(C16H29N3O1)]\\@


 ONLY A FOOL KNOWS EVERYTHING.

               -- THE CHEMIST ANALYST, SEPTEMBER 1946
 Job cpu time:       0 days  2 hours 38 minutes 54.3 seconds.
 Elapsed time:       0 days  0 hours 40 minutes 11.6 seconds.
 File lengths (MBytes):  RWF=    440 Int=      0 D2E=      0 Chk=     44 Scr=      8
 Normal termination of Gaussian 16 at Mon Dec 14 20:00:08 2020.
