 Entering Gaussian System, Link 0=g16
 Initial command:
 /apps/brussel/CO7/ivybridge-ib/software/Gaussian/G16.A.03-intel-2017b/g16/l1.exe "/scratch/brussel/102/vsc10255/3544754[2316].master01.hydra.brussel.vsc/Gau-28188.inp" -scrdir="/scratch/brussel/102/vsc10255/3544754[2316].master01.hydra.brussel.vsc/"
 Entering Link 1 = /apps/brussel/CO7/ivybridge-ib/software/Gaussian/G16.A.03-intel-2017b/g16/l1.exe.bin PID=     28189.
  
 Copyright (c) 1988,1990,1992,1993,1995,1998,2003,2009,2016,
            Gaussian, Inc.  All Rights Reserved.
  
 This is part of the Gaussian(R) 16 program.  It is based on
 the Gaussian(R) 09 system (copyright 2009, Gaussian, Inc.),
 the Gaussian(R) 03 system (copyright 2003, Gaussian, Inc.),
 the Gaussian(R) 98 system (copyright 1998, Gaussian, Inc.),
 the Gaussian(R) 94 system (copyright 1995, Gaussian, Inc.),
 the Gaussian 92(TM) system (copyright 1992, Gaussian, Inc.),
 the Gaussian 90(TM) system (copyright 1990, Gaussian, Inc.),
 the Gaussian 88(TM) system (copyright 1988, Gaussian, Inc.),
 the Gaussian 86(TM) system (copyright 1986, Carnegie Mellon
 University), and the Gaussian 82(TM) system (copyright 1983,
 Carnegie Mellon University). Gaussian is a federally registered
 trademark of Gaussian, Inc.
  
 This software contains proprietary and confidential information,
 including trade secrets, belonging to Gaussian, Inc.
  
 This software is provided under written license and may be
 used, copied, transmitted, or stored only in accord with that
 written license.
  
 The following legend is applicable only to US Government
 contracts under FAR:
  
                    RESTRICTED RIGHTS LEGEND
  
 Use, reproduction and disclosure by the US Government is
 subject to restrictions as set forth in subparagraphs (a)
 and (c) of the Commercial Computer Software - Restricted
 Rights clause in FAR 52.227-19.
  
 Gaussian, Inc.
 340 Quinnipiac St., Bldg. 40, Wallingford CT 06492
  
  
 ---------------------------------------------------------------
 Warning -- This program may not be used in any manner that
 competes with the business of Gaussian, Inc. or will provide
 assistance to any competitor of Gaussian, Inc.  The licensee
 of this program is prohibited from giving any competitor of
 Gaussian, Inc. access to this program.  By using this program,
 the user acknowledges that Gaussian, Inc. is engaged in the
 business of creating and licensing software in the field of
 computational chemistry and represents and warrants to the
 licensee that it is not a competitor of Gaussian, Inc. and that
 it will not use this program in any manner prohibited above.
 ---------------------------------------------------------------
  

 Cite this work as:
 Gaussian 16, Revision A.03,
 M. J. Frisch, G. W. Trucks, H. B. Schlegel, G. E. Scuseria, 
 M. A. Robb, J. R. Cheeseman, G. Scalmani, V. Barone, 
 G. A. Petersson, H. Nakatsuji, X. Li, M. Caricato, A. V. Marenich, 
 J. Bloino, B. G. Janesko, R. Gomperts, B. Mennucci, H. P. Hratchian, 
 J. V. Ortiz, A. F. Izmaylov, J. L. Sonnenberg, D. Williams-Young, 
 F. Ding, F. Lipparini, F. Egidi, J. Goings, B. Peng, A. Petrone, 
 T. Henderson, D. Ranasinghe, V. G. Zakrzewski, J. Gao, N. Rega, 
 G. Zheng, W. Liang, M. Hada, M. Ehara, K. Toyota, R. Fukuda, 
 J. Hasegawa, M. Ishida, T. Nakajima, Y. Honda, O. Kitao, H. Nakai, 
 T. Vreven, K. Throssell, J. A. Montgomery, Jr., J. E. Peralta, 
 F. Ogliaro, M. J. Bearpark, J. J. Heyd, E. N. Brothers, K. N. Kudin, 
 V. N. Staroverov, T. A. Keith, R. Kobayashi, J. Normand, 
 K. Raghavachari, A. P. Rendell, J. C. Burant, S. S. Iyengar, 
 J. Tomasi, M. Cossi, J. M. Millam, M. Klene, C. Adamo, R. Cammi, 
 J. W. Ochterski, R. L. Martin, K. Morokuma, O. Farkas, 
 J. B. Foresman, and D. J. Fox, Gaussian, Inc., Wallingford CT, 2016.
 
 ******************************************
 Gaussian 16:  ES64L-G16RevA.03 25-Dec-2016
                 9-Dec-2020 
 ******************************************
 %chk=JID_2316.chk
 %mem=8GB
 %nprocshared=4
 Will use up to    4 processors via shared memory.
 -----------------------------------------------------------
 # opt freq B3LYP/6-31G(d) empiricaldispersion=gd3bj scf=xqc
 -----------------------------------------------------------
 1/18=20,19=15,26=3,38=1/1,3;
 2/9=110,12=2,17=6,18=5,40=1/2;
 3/5=1,6=6,7=1,11=2,25=1,30=1,71=1,74=-5,124=41/1,2,3;
 4//1;
 5/5=2,8=3,13=1,38=5/2,8;
 6/7=2,8=2,9=2,10=2,28=1/1;
 7//1,2,3,16;
 1/18=20,19=15,26=3/3(2);
 2/9=110/2;
 99//99;
 2/9=110/2;
 3/5=1,6=6,7=1,11=2,25=1,30=1,71=1,74=-5,124=41/1,2,3;
 4/5=5,16=3,69=1/1;
 5/5=2,8=3,13=1,38=5/2,8;
 7//1,2,3,16;
 1/18=20,19=15,26=3/3(-5);
 2/9=110/2;
 6/7=2,8=2,9=2,10=2,19=2,28=1/1;
 99/9=1/99;
 ------------------------------
 CID_11019239_JID_2316_neutraal
 ------------------------------
 Symbolic Z-matrix:
 Charge =  0 Multiplicity = 1
 C                     1.698     0.034    -0.788 
 C                     0.4938    0.1148    0.16818 
 C                    -0.62905  -0.82767  -0.29833 
 C                    -1.90105   0.00679  -0.36936 
 C                    -1.39513   1.36804  -0.7904 
 C                    -0.147     1.53304   0.06071 
 C                     1.04157   0.00883   1.59152 
 N                     1.1883   -0.92779   2.44579 
 C                     0.88458  -2.34084   2.53301 
 C                    -0.59173  -2.54754   2.88823 
 C                     1.35896  -3.13497   1.31727 
 C                     1.70465  -2.85326   3.74289 
 H                     2.13749  -0.9694   -0.77736 
 H                     1.40892   0.26592  -1.81913 
 H                     2.48746   0.73667  -0.49653 
 H                    -0.41265  -1.21712  -1.3018 
 H                    -0.8029   -1.6915    0.3288 
 H                    -2.37448   0.05999   0.61822 
 H                    -2.62696  -0.40599  -1.07579 
 H                    -2.12805   2.1597   -0.61179 
 H                    -1.13475   1.37085  -1.85506 
 H                    -0.44829   1.90416   1.04978 
 H                     0.53117   2.27933  -0.36708 
 H                     1.47412   0.9648    1.94903 
 H                    -1.27886  -2.06097   2.19701 
 H                    -0.84563  -3.61267   2.92204 
 H                    -0.81808  -2.12249   3.87426 
 H                     2.42966  -2.97807   1.14125 
 H                     1.2031   -4.2096    1.47006 
 H                     0.84926  -2.87313   0.39273 
 H                     2.78077  -2.72624   3.57578 
 H                     1.45552  -2.29948   4.65638 
 H                     1.51469  -3.91597   3.93306 
 

 GradGradGradGradGradGradGradGradGradGradGradGradGradGradGradGradGradGrad
 Berny optimization.
 Initialization pass.
                           ----------------------------
                           !    Initial Parameters    !
                           ! (Angstroms and Degrees)  !
 --------------------------                            --------------------------
 ! Name  Definition              Value          Derivative Info.                !
 --------------------------------------------------------------------------------
 ! R1    R(1,2)                  1.5398         estimate D2E/DX2                !
 ! R2    R(1,13)                 1.0955         estimate D2E/DX2                !
 ! R3    R(1,14)                 1.0957         estimate D2E/DX2                !
 ! R4    R(1,15)                 1.0963         estimate D2E/DX2                !
 ! R5    R(2,3)                  1.5384         estimate D2E/DX2                !
 ! R6    R(2,6)                  1.56           estimate D2E/DX2                !
 ! R7    R(2,7)                  1.5288         estimate D2E/DX2                !
 ! R8    R(3,4)                  1.5229         estimate D2E/DX2                !
 ! R9    R(3,16)                 1.0979         estimate D2E/DX2                !
 ! R10   R(3,17)                 1.0815         estimate D2E/DX2                !
 ! R11   R(4,5)                  1.512          estimate D2E/DX2                !
 ! R12   R(4,18)                 1.0965         estimate D2E/DX2                !
 ! R13   R(4,19)                 1.0938         estimate D2E/DX2                !
 ! R14   R(5,6)                  1.5197         estimate D2E/DX2                !
 ! R15   R(5,20)                 1.0935         estimate D2E/DX2                !
 ! R16   R(5,21)                 1.096          estimate D2E/DX2                !
 ! R17   R(6,22)                 1.0985         estimate D2E/DX2                !
 ! R18   R(6,23)                 1.0954         estimate D2E/DX2                !
 ! R19   R(7,8)                  1.2762         estimate D2E/DX2                !
 ! R20   R(7,24)                 1.1085         estimate D2E/DX2                !
 ! R21   R(8,9)                  1.448          estimate D2E/DX2                !
 ! R22   R(9,10)                 1.5324         estimate D2E/DX2                !
 ! R23   R(9,11)                 1.5276         estimate D2E/DX2                !
 ! R24   R(9,12)                 1.5488         estimate D2E/DX2                !
 ! R25   R(10,25)                1.0893         estimate D2E/DX2                !
 ! R26   R(10,26)                1.0955         estimate D2E/DX2                !
 ! R27   R(10,27)                1.0973         estimate D2E/DX2                !
 ! R28   R(11,28)                1.0964         estimate D2E/DX2                !
 ! R29   R(11,29)                1.0966         estimate D2E/DX2                !
 ! R30   R(11,30)                1.0877         estimate D2E/DX2                !
 ! R31   R(12,31)                1.0964         estimate D2E/DX2                !
 ! R32   R(12,32)                1.0969         estimate D2E/DX2                !
 ! R33   R(12,33)                1.0962         estimate D2E/DX2                !
 ! A1    A(2,1,13)             110.8415         estimate D2E/DX2                !
 ! A2    A(2,1,14)             111.5275         estimate D2E/DX2                !
 ! A3    A(2,1,15)             111.3724         estimate D2E/DX2                !
 ! A4    A(13,1,14)            107.9902         estimate D2E/DX2                !
 ! A5    A(13,1,15)            107.1925         estimate D2E/DX2                !
 ! A6    A(14,1,15)            107.7287         estimate D2E/DX2                !
 ! A7    A(1,2,3)              110.509          estimate D2E/DX2                !
 ! A8    A(1,2,6)              109.0368         estimate D2E/DX2                !
 ! A9    A(1,2,7)              107.1157         estimate D2E/DX2                !
 ! A10   A(3,2,6)              103.6657         estimate D2E/DX2                !
 ! A11   A(3,2,7)              120.0915         estimate D2E/DX2                !
 ! A12   A(6,2,7)              105.9226         estimate D2E/DX2                !
 ! A13   A(2,3,4)              106.7432         estimate D2E/DX2                !
 ! A14   A(2,3,16)             110.5242         estimate D2E/DX2                !
 ! A15   A(2,3,17)             115.5183         estimate D2E/DX2                !
 ! A16   A(4,3,16)             108.4424         estimate D2E/DX2                !
 ! A17   A(4,3,17)             109.2943         estimate D2E/DX2                !
 ! A18   A(16,3,17)            106.1608         estimate D2E/DX2                !
 ! A19   A(3,4,5)              103.1094         estimate D2E/DX2                !
 ! A20   A(3,4,18)             110.1942         estimate D2E/DX2                !
 ! A21   A(3,4,19)             112.1884         estimate D2E/DX2                !
 ! A22   A(5,4,18)             110.5847         estimate D2E/DX2                !
 ! A23   A(5,4,19)             112.4556         estimate D2E/DX2                !
 ! A24   A(18,4,19)            108.2683         estimate D2E/DX2                !
 ! A25   A(4,5,6)              102.5095         estimate D2E/DX2                !
 ! A26   A(4,5,20)             112.4588         estimate D2E/DX2                !
 ! A27   A(4,5,21)             110.6271         estimate D2E/DX2                !
 ! A28   A(6,5,20)             112.3579         estimate D2E/DX2                !
 ! A29   A(6,5,21)             110.4035         estimate D2E/DX2                !
 ! A30   A(20,5,21)            108.4227         estimate D2E/DX2                !
 ! A31   A(2,6,5)              106.0958         estimate D2E/DX2                !
 ! A32   A(2,6,22)             110.9633         estimate D2E/DX2                !
 ! A33   A(2,6,23)             113.0781         estimate D2E/DX2                !
 ! A34   A(5,6,22)             108.4016         estimate D2E/DX2                !
 ! A35   A(5,6,23)             111.3297         estimate D2E/DX2                !
 ! A36   A(22,6,23)            106.9334         estimate D2E/DX2                !
 ! A37   A(2,7,8)              135.6688         estimate D2E/DX2                !
 ! A38   A(2,7,24)             112.3526         estimate D2E/DX2                !
 ! A39   A(8,7,24)             111.8504         estimate D2E/DX2                !
 ! A40   A(7,8,9)              137.0926         estimate D2E/DX2                !
 ! A41   A(8,9,10)             110.3448         estimate D2E/DX2                !
 ! A42   A(8,9,11)             113.2182         estimate D2E/DX2                !
 ! A43   A(8,9,12)             105.0024         estimate D2E/DX2                !
 ! A44   A(10,9,11)            114.4255         estimate D2E/DX2                !
 ! A45   A(10,9,12)            106.522          estimate D2E/DX2                !
 ! A46   A(11,9,12)            106.5744         estimate D2E/DX2                !
 ! A47   A(9,10,25)            113.5991         estimate D2E/DX2                !
 ! A48   A(9,10,26)            111.1969         estimate D2E/DX2                !
 ! A49   A(9,10,27)            110.7784         estimate D2E/DX2                !
 ! A50   A(25,10,26)           107.919          estimate D2E/DX2                !
 ! A51   A(25,10,27)           105.4881         estimate D2E/DX2                !
 ! A52   A(26,10,27)           107.5219         estimate D2E/DX2                !
 ! A53   A(9,11,28)            110.8939         estimate D2E/DX2                !
 ! A54   A(9,11,29)            110.7576         estimate D2E/DX2                !
 ! A55   A(9,11,30)            113.9404         estimate D2E/DX2                !
 ! A56   A(28,11,29)           107.5432         estimate D2E/DX2                !
 ! A57   A(28,11,30)           106.6614         estimate D2E/DX2                !
 ! A58   A(29,11,30)           106.7225         estimate D2E/DX2                !
 ! A59   A(9,12,31)            111.241          estimate D2E/DX2                !
 ! A60   A(9,12,32)            111.3001         estimate D2E/DX2                !
 ! A61   A(9,12,33)            111.3771         estimate D2E/DX2                !
 ! A62   A(31,12,32)           106.9395         estimate D2E/DX2                !
 ! A63   A(31,12,33)           107.9896         estimate D2E/DX2                !
 ! A64   A(32,12,33)           107.7948         estimate D2E/DX2                !
 ! D1    D(13,1,2,3)           -63.54           estimate D2E/DX2                !
 ! D2    D(13,1,2,6)          -176.8626         estimate D2E/DX2                !
 ! D3    D(13,1,2,7)            68.9381         estimate D2E/DX2                !
 ! D4    D(14,1,2,3)            56.82           estimate D2E/DX2                !
 ! D5    D(14,1,2,6)           -56.5026         estimate D2E/DX2                !
 ! D6    D(14,1,2,7)          -170.7019         estimate D2E/DX2                !
 ! D7    D(15,1,2,3)           177.2104         estimate D2E/DX2                !
 ! D8    D(15,1,2,6)            63.8878         estimate D2E/DX2                !
 ! D9    D(15,1,2,7)           -50.3115         estimate D2E/DX2                !
 ! D10   D(1,2,3,4)           -127.989          estimate D2E/DX2                !
 ! D11   D(1,2,3,16)           -10.2548         estimate D2E/DX2                !
 ! D12   D(1,2,3,17)           110.2783         estimate D2E/DX2                !
 ! D13   D(6,2,3,4)            -11.2874         estimate D2E/DX2                !
 ! D14   D(6,2,3,16)           106.4467         estimate D2E/DX2                !
 ! D15   D(6,2,3,17)          -133.0201         estimate D2E/DX2                !
 ! D16   D(7,2,3,4)            106.5656         estimate D2E/DX2                !
 ! D17   D(7,2,3,16)          -135.7002         estimate D2E/DX2                !
 ! D18   D(7,2,3,17)           -15.1671         estimate D2E/DX2                !
 ! D19   D(1,2,6,5)            102.6174         estimate D2E/DX2                !
 ! D20   D(1,2,6,22)          -139.8407         estimate D2E/DX2                !
 ! D21   D(1,2,6,23)           -19.6895         estimate D2E/DX2                !
 ! D22   D(3,2,6,5)            -15.1133         estimate D2E/DX2                !
 ! D23   D(3,2,6,22)           102.4286         estimate D2E/DX2                !
 ! D24   D(3,2,6,23)          -137.4202         estimate D2E/DX2                !
 ! D25   D(7,2,6,5)           -142.4099         estimate D2E/DX2                !
 ! D26   D(7,2,6,22)           -24.868          estimate D2E/DX2                !
 ! D27   D(7,2,6,23)            95.2832         estimate D2E/DX2                !
 ! D28   D(1,2,7,8)            -96.5984         estimate D2E/DX2                !
 ! D29   D(1,2,7,24)            78.8081         estimate D2E/DX2                !
 ! D30   D(3,2,7,8)             30.4248         estimate D2E/DX2                !
 ! D31   D(3,2,7,24)          -154.1686         estimate D2E/DX2                !
 ! D32   D(6,2,7,8)            147.1217         estimate D2E/DX2                !
 ! D33   D(6,2,7,24)           -37.4718         estimate D2E/DX2                !
 ! D34   D(2,3,4,5)             33.6188         estimate D2E/DX2                !
 ! D35   D(2,3,4,18)           -84.435          estimate D2E/DX2                !
 ! D36   D(2,3,4,19)           154.8528         estimate D2E/DX2                !
 ! D37   D(16,3,4,5)           -85.4768         estimate D2E/DX2                !
 ! D38   D(16,3,4,18)          156.4693         estimate D2E/DX2                !
 ! D39   D(16,3,4,19)           35.7572         estimate D2E/DX2                !
 ! D40   D(17,3,4,5)           159.2073         estimate D2E/DX2                !
 ! D41   D(17,3,4,18)           41.1535         estimate D2E/DX2                !
 ! D42   D(17,3,4,19)          -79.5586         estimate D2E/DX2                !
 ! D43   D(3,4,5,6)            -42.4358         estimate D2E/DX2                !
 ! D44   D(3,4,5,20)          -163.3219         estimate D2E/DX2                !
 ! D45   D(3,4,5,21)            75.2798         estimate D2E/DX2                !
 ! D46   D(18,4,5,6)            75.344          estimate D2E/DX2                !
 ! D47   D(18,4,5,20)          -45.542          estimate D2E/DX2                !
 ! D48   D(18,4,5,21)         -166.9403         estimate D2E/DX2                !
 ! D49   D(19,4,5,6)          -163.4883         estimate D2E/DX2                !
 ! D50   D(19,4,5,20)           75.6256         estimate D2E/DX2                !
 ! D51   D(19,4,5,21)          -45.7727         estimate D2E/DX2                !
 ! D52   D(4,5,6,2)             35.8526         estimate D2E/DX2                !
 ! D53   D(4,5,6,22)           -83.3849         estimate D2E/DX2                !
 ! D54   D(4,5,6,23)           159.2645         estimate D2E/DX2                !
 ! D55   D(20,5,6,2)           156.8081         estimate D2E/DX2                !
 ! D56   D(20,5,6,22)           37.5707         estimate D2E/DX2                !
 ! D57   D(20,5,6,23)          -79.78           estimate D2E/DX2                !
 ! D58   D(21,5,6,2)           -82.0217         estimate D2E/DX2                !
 ! D59   D(21,5,6,22)          158.7408         estimate D2E/DX2                !
 ! D60   D(21,5,6,23)           41.3902         estimate D2E/DX2                !
 ! D61   D(2,7,8,9)             -2.3317         estimate D2E/DX2                !
 ! D62   D(24,7,8,9)          -177.7546         estimate D2E/DX2                !
 ! D63   D(7,8,9,10)           -79.963          estimate D2E/DX2                !
 ! D64   D(7,8,9,11)            49.7507         estimate D2E/DX2                !
 ! D65   D(7,8,9,12)           165.6198         estimate D2E/DX2                !
 ! D66   D(8,9,10,25)           55.9574         estimate D2E/DX2                !
 ! D67   D(8,9,10,26)          177.9316         estimate D2E/DX2                !
 ! D68   D(8,9,10,27)          -62.5613         estimate D2E/DX2                !
 ! D69   D(11,9,10,25)         -73.1072         estimate D2E/DX2                !
 ! D70   D(11,9,10,26)          48.8671         estimate D2E/DX2                !
 ! D71   D(11,9,10,27)         168.3741         estimate D2E/DX2                !
 ! D72   D(12,9,10,25)         169.4082         estimate D2E/DX2                !
 ! D73   D(12,9,10,26)         -68.6175         estimate D2E/DX2                !
 ! D74   D(12,9,10,27)          50.8896         estimate D2E/DX2                !
 ! D75   D(8,9,11,28)           54.8108         estimate D2E/DX2                !
 ! D76   D(8,9,11,29)          174.1332         estimate D2E/DX2                !
 ! D77   D(8,9,11,30)          -65.5386         estimate D2E/DX2                !
 ! D78   D(10,9,11,28)        -177.5768         estimate D2E/DX2                !
 ! D79   D(10,9,11,29)         -58.2544         estimate D2E/DX2                !
 ! D80   D(10,9,11,30)          62.0738         estimate D2E/DX2                !
 ! D81   D(12,9,11,28)         -60.1222         estimate D2E/DX2                !
 ! D82   D(12,9,11,29)          59.2002         estimate D2E/DX2                !
 ! D83   D(12,9,11,30)         179.5285         estimate D2E/DX2                !
 ! D84   D(8,9,12,31)          -62.0549         estimate D2E/DX2                !
 ! D85   D(8,9,12,32)           57.093          estimate D2E/DX2                !
 ! D86   D(8,9,12,33)          177.4153         estimate D2E/DX2                !
 ! D87   D(10,9,12,31)        -179.1156         estimate D2E/DX2                !
 ! D88   D(10,9,12,32)         -59.9677         estimate D2E/DX2                !
 ! D89   D(10,9,12,33)          60.3547         estimate D2E/DX2                !
 ! D90   D(11,9,12,31)          58.3164         estimate D2E/DX2                !
 ! D91   D(11,9,12,32)         177.4643         estimate D2E/DX2                !
 ! D92   D(11,9,12,33)         -62.2134         estimate D2E/DX2                !
 --------------------------------------------------------------------------------
 Trust Radius=3.00D-01 FncErr=1.00D-07 GrdErr=1.00D-06 EigMax=2.50D+02 EigMin=1.00D-04
 Number of steps in this run=    198 maximum allowed number of steps=    198.
 GradGradGradGradGradGradGradGradGradGradGradGradGradGradGradGradGradGrad

                          Input orientation:                          
 ---------------------------------------------------------------------
 Center     Atomic      Atomic             Coordinates (Angstroms)
 Number     Number       Type             X           Y           Z
 ---------------------------------------------------------------------
      1          6           0        1.698000    0.034000   -0.788000
      2          6           0        0.493800    0.114800    0.168180
      3          6           0       -0.629050   -0.827670   -0.298330
      4          6           0       -1.901050    0.006790   -0.369360
      5          6           0       -1.395130    1.368040   -0.790400
      6          6           0       -0.147000    1.533040    0.060710
      7          6           0        1.041570    0.008830    1.591520
      8          7           0        1.188300   -0.927790    2.445790
      9          6           0        0.884580   -2.340840    2.533010
     10          6           0       -0.591730   -2.547540    2.888230
     11          6           0        1.358960   -3.134970    1.317270
     12          6           0        1.704650   -2.853260    3.742890
     13          1           0        2.137490   -0.969400   -0.777360
     14          1           0        1.408920    0.265920   -1.819130
     15          1           0        2.487460    0.736670   -0.496530
     16          1           0       -0.412650   -1.217120   -1.301800
     17          1           0       -0.802900   -1.691500    0.328800
     18          1           0       -2.374480    0.059990    0.618220
     19          1           0       -2.626960   -0.405990   -1.075790
     20          1           0       -2.128050    2.159700   -0.611790
     21          1           0       -1.134750    1.370850   -1.855060
     22          1           0       -0.448290    1.904160    1.049780
     23          1           0        0.531170    2.279330   -0.367080
     24          1           0        1.474120    0.964800    1.949030
     25          1           0       -1.278860   -2.060970    2.197010
     26          1           0       -0.845630   -3.612670    2.922040
     27          1           0       -0.818080   -2.122490    3.874260
     28          1           0        2.429660   -2.978070    1.141250
     29          1           0        1.203100   -4.209600    1.470060
     30          1           0        0.849260   -2.873130    0.392730
     31          1           0        2.780770   -2.726240    3.575780
     32          1           0        1.455520   -2.299480    4.656380
     33          1           0        1.514690   -3.915970    3.933060
 ---------------------------------------------------------------------
                    Distance matrix (angstroms):
                    1          2          3          4          5
     1  C    0.000000
     2  C    1.539775   0.000000
     3  C    2.529311   1.538400   0.000000
     4  C    3.623418   2.456811   1.522942   0.000000
     5  C    3.368549   2.461208   2.377005   1.512029   0.000000
     6  C    2.524174   1.559993   2.436028   2.364549   1.519685
     7  C    2.468532   1.528783   2.657487   3.536109   3.668583
     8  N    3.412071   2.599391   3.292868   4.282825   4.734751
     9  C    4.163007   3.431515   3.549260   4.657773   5.477036
    10  C    5.042011   3.957916   3.621258   4.341752   5.432268
    11  C    3.819618   3.553859   3.447605   4.831464   5.683695
    12  C    5.372642   4.801467   5.087301   6.171836   6.926668
    13  H    1.095480   2.184320   2.811281   4.174831   4.235941
    14  H    1.095711   2.193099   2.768049   3.622828   3.183654
    15  H    1.096333   2.191630   3.492718   4.450609   3.944552
    16  H    2.506818   2.180941   1.097931   2.140732   2.812445
    17  H    3.237143   2.229338   1.081535   2.139521   3.311213
    18  H    4.308506   2.903889   2.162066   1.096486   2.157390
    19  H    4.356799   3.399680   2.184926   1.093790   2.178540
    20  H    4.380446   3.415270   3.357028   2.178376   1.093526
    21  H    3.309117   2.885019   2.740918   2.157587   1.096041
    22  H    3.388435   2.206028   3.051716   2.779295   2.137801
    23  H    2.565185   2.230043   3.317271   3.328684   2.172621
    24  H    2.899628   2.203396   3.561867   4.205293   3.987440
    25  H    4.707534   3.463012   2.858322   3.353954   4.549313
    26  H    5.790739   4.824091   4.263087   5.004769   6.236316
    27  H    5.719945   4.523442   4.372962   4.869802   5.854557
    28  H    3.651013   3.776276   4.006534   5.472329   6.103193
    29  H    4.832381   4.571480   4.233371   5.549519   6.555192
    30  H    3.250521   3.017366   2.616653   4.054494   4.942126
    31  H    5.275784   4.991340   5.499106   6.704701   7.298274
    32  H    5.928339   5.186289   5.573222   6.468656   7.158514
    33  H    6.158269   5.609246   5.660201   6.750270   7.661520
                    6          7          8          9         10
     6  C    0.000000
     7  C    2.465622   0.000000
     8  N    3.677950   1.276152   0.000000
     9  C    4.709923   2.536138   1.447951   0.000000
    10  C    4.984354   3.299114   2.447008   1.532448   0.000000
    11  C    5.063317   3.171660   2.484819   1.527646   2.572583
    12  C    6.018861   3.641377   2.378344   1.548838   2.469265
    13  H    3.490482   2.787394   3.360266   3.795943   4.834844
    14  H    2.749596   3.439996   4.434316   5.100123   5.837585
    15  H    2.808042   2.642026   3.621532   4.606344   5.632410
    16  H    3.080647   3.462515   4.085484   4.201347   4.399823
    17  H    3.301475   2.808497   3.004959   2.850925   2.707043
    18  H    2.728069   3.552369   4.124212   4.477932   3.889776
    19  H    3.346890   4.554638   5.218238   5.394256   4.943870
    20  H    2.183923   4.418971   5.466221   6.262633   6.063706
    21  H    2.161511   4.297718   5.401631   6.091756   6.176362
    22  H    1.098529   2.470919   3.556292   4.690047   4.818517
    23  H    1.095385   3.041676   4.316211   5.466387   5.929302
    24  H    2.552779   1.108509   1.977463   3.408203   4.181670
    25  H    4.331489   3.167820   2.726328   2.207192   1.089350
    26  H    5.929049   4.295005   3.401803   2.182320   1.095495
    27  H    5.325074   3.634794   2.737407   2.178458   1.097341
    28  H    5.306304   3.324321   2.728818   2.174932   3.516546
    29  H    6.065225   4.223268   3.423820   2.173380   2.827554
    30  H    4.529581   3.127263   2.848570   2.205760   2.899997
    31  H    6.250522   3.800357   2.654668   2.198053   3.446508
    32  H    6.194874   3.859147   2.615272   2.199178   2.716454
    33  H    6.888252   4.594639   3.353762   2.199594   2.720529
                   11         12         13         14         15
    11  C    0.000000
    12  C    2.466271   0.000000
    13  H    3.111796   4.916192   0.000000
    14  H    4.626614   6.383792   1.772601   0.000000
    15  H    4.421875   5.610087   1.764092   1.770346   0.000000
    16  H    3.698145   5.710412   2.615266   2.405235   3.588369
    17  H    2.781064   4.392437   3.223494   3.652019   4.171768
    18  H    4.963367   5.906766   4.833752   4.505241   5.033788
    19  H    5.390884   6.926157   4.806920   4.158407   5.272429
    20  H    6.626767   7.666981   5.292779   4.189777   4.831276
    21  H    6.048527   7.565867   4.164824   2.773521   3.920229
    22  H    5.360087   5.875461   4.275751   3.789948   3.517490
    23  H    5.730350   6.679251   3.647306   2.633005   2.494720
    24  H    4.149759   4.224767   3.407989   3.832977   2.657003
    25  H    2.980858   3.452362   4.659383   5.363577   5.409909
    26  H    2.768339   2.784677   5.437963   6.527262   6.458550
    27  H    3.507537   2.629724   5.630504   6.563438   6.181035
    28  H    1.096357   2.703655   2.793060   4.508795   4.060167
    29  H    1.096570   2.693876   4.052515   5.558004   5.475641
    30  H    1.087717   3.457696   2.579309   3.880616   4.062652
    31  H    2.699902   1.096401   4.738156   6.319814   5.353642
    32  H    3.443403   1.096906   5.635577   6.965320   6.069233
    33  H    2.734332   1.096176   5.590904   7.112460   6.497277
                   16         17         18         19         20
    16  H    0.000000
    17  H    1.742466   0.000000
    18  H    3.027584   2.370938   0.000000
    19  H    2.369004   2.636779   1.774980   0.000000
    20  H    3.849886   4.180009   2.445902   2.654613   0.000000
    21  H    2.743194   3.775891   3.061437   2.447675   1.776133
    22  H    3.908144   3.684336   2.701373   3.821184   2.376491
    23  H    3.740275   4.246349   3.786699   4.205591   2.673134
    24  H    4.346098   3.855632   4.171506   5.277069   4.578342
    25  H    3.701901   1.962971   2.862068   3.907372   5.140480
    26  H    4.875136   3.227633   4.597108   5.425733   6.888600
    27  H    5.270262   3.571592   4.217511   5.542690   6.338597
    28  H    4.141034   3.572783   5.708163   6.090999   7.088198
    29  H    4.387345   3.415749   5.635078   5.968095   7.483224
    30  H    2.684440   2.032233   4.364234   4.508596   5.933196
    31  H    6.022139   4.945327   6.564057   7.500947   8.093495
    32  H    6.337308   4.919151   6.045059   7.287642   7.776881
    33  H    6.196950   4.828062   6.474725   7.386596   8.416590
                   21         22         23         24         25
    21  H    0.000000
    22  H    3.032118   0.000000
    23  H    2.411371   1.762835   0.000000
    24  H    4.630570   2.320928   2.825157   0.000000
    25  H    5.312008   4.210492   5.356209   4.098253   0.000000
    26  H    6.909396   5.839405   6.886912   5.223143   1.766672
    27  H    6.717798   4.932377   6.259829   4.300238   1.740480
    28  H    6.371499   5.668080   5.789610   4.136640   3.963436
    29  H    6.903868   6.346793   6.777373   5.203583   3.362320
    30  H    5.196174   4.993781   5.217886   4.188344   2.905843
    31  H    7.849297   6.184506   6.757409   4.239979   4.338685
    32  H    7.910731   5.856846   6.859670   4.240945   3.685407
    33  H    8.274801   6.785316   7.605278   5.268770   3.776085
                   26         27         28         29         30
    26  H    0.000000
    27  H    1.768649   0.000000
    28  H    3.781726   4.330032   0.000000
    29  H    2.581059   3.771124   1.768963   0.000000
    30  H    3.133206   3.932497   1.751844   1.752711   0.000000
    31  H    3.789975   3.661328   2.472576   3.020506   3.726139
    32  H    3.166654   2.410870   3.710198   3.723561   4.344576
    33  H    2.585588   2.943101   3.083996   2.499935   3.750233
                   31         32         33
    31  H    0.000000
    32  H    1.762415   0.000000
    33  H    1.773715   1.771929   0.000000
 Stoichiometry    C11H21N
 Framework group  C1[X(C11H21N)]
 Deg. of freedom    93
 Full point group                 C1      NOp   1
 Largest Abelian subgroup         C1      NOp   1
 Largest concise Abelian subgroup C1      NOp   1
                         Standard orientation:                         
 ---------------------------------------------------------------------
 Center     Atomic      Atomic             Coordinates (Angstroms)
 Number     Number       Type             X           Y           Z
 ---------------------------------------------------------------------
      1          6           0       -1.336441   -1.902039    0.794510
      2          6           0       -1.158342   -0.608051   -0.020831
      3          6           0       -1.204961    0.621541    0.902534
      4          6           0       -2.235590    1.574743    0.312142
      5          6           0       -3.262201    0.640909   -0.288071
      6          6           0       -2.396526   -0.417956   -0.950531
      7          6           0        0.035569   -0.823178   -0.951140
      8          7           0        1.279311   -0.539012   -0.920784
      9          6           0        2.187219    0.155100   -0.031699
     10          6           0        2.071290    1.670413   -0.228642
     11          6           0        2.075487   -0.303454    1.421211
     12          6           0        3.603938   -0.244568   -0.513438
     13          1           0       -0.508259   -2.035933    1.498970
     14          1           0       -2.270033   -1.890646    1.367973
     15          1           0       -1.354751   -2.784602    0.144361
     16          1           0       -1.534345    0.334306    1.909736
     17          1           0       -0.266721    1.144142    1.030255
     18          1           0       -1.775686    2.194158   -0.467021
     19          1           0       -2.665590    2.238032    1.068133
     20          1           0       -3.920141    1.145884   -1.000752
     21          1           0       -3.881444    0.191923    0.496949
     22          1           0       -2.092492   -0.048443   -1.939363
     23          1           0       -2.956557   -1.344933   -1.114686
     24          1           0       -0.227993   -1.427198   -1.842479
     25          1           0        1.058917    2.050936   -0.098311
     26          1           0        2.726262    2.211040    0.463342
     27          1           0        2.361884    1.953830   -1.248145
     28          1           0        2.208802   -1.388817    1.500027
     29          1           0        2.848030    0.170162    2.038732
     30          1           0        1.119012   -0.072256    1.884709
     31          1           0        3.765051   -1.325060   -0.420301
     32          1           0        3.752384    0.010810   -1.569822
     33          1           0        4.381852    0.264986    0.066912
 ---------------------------------------------------------------------
 Rotational constants (GHZ):           1.6758571           0.5572764           0.5169944
 Standard basis: 6-31G(d) (6D, 7F)
 There are   222 symmetry adapted cartesian basis functions of A   symmetry.
 There are   222 symmetry adapted basis functions of A   symmetry.
   222 basis functions,   420 primitive gaussians,   222 cartesian basis functions
    47 alpha electrons       47 beta electrons
       nuclear repulsion energy       768.6391482839 Hartrees.
 NAtoms=   33 NActive=   33 NUniq=   33 SFac= 1.00D+00 NAtFMM=   60 NAOKFM=F Big=F
 Integral buffers will be    131072 words long.
 Raffenetti 2 integral format.
 Two-electron integral symmetry is turned on.
 Nuclear repulsion after empirical dispersion term =      768.5792746656 Hartrees.
 One-electron integrals computed using PRISM.
 NBasis=   222 RedAO= T EigKep=  2.32D-03  NBF=   222
 NBsUse=   222 1.00D-06 EigRej= -1.00D+00 NBFU=   222
 ExpMin= 1.61D-01 ExpMax= 4.17D+03 ExpMxC= 6.27D+02 IAcc=3 IRadAn=         5 AccDes= 0.00D+00
 Harris functional with IExCor=  402 and IRadAn=       5 diagonalized for initial guess.
 HarFok:  IExCor=  402 AccDes= 0.00D+00 IRadAn=         5 IDoV= 1 UseB2=F ITyADJ=14
 ICtDFT=  3500011 ScaDFX=  1.000000  1.000000  1.000000  1.000000
 FoFCou: FMM=F IPFlag=           0 FMFlag=      100000 FMFlg1=           0
         NFxFlg=           0 DoJE=T BraDBF=F KetDBF=T FulRan=T
         wScrn=  0.000000 ICntrl=       500 IOpCl=  0 I1Cent=   200000004 NGrid=           0
         NMat0=    1 NMatS0=      1 NMatT0=    0 NMatD0=    1 NMtDS0=    0 NMtDT0=    0
 Petite list used in FoFCou.
 Keep R1 ints in memory in canonical form, NReq=311914365.
 Requested convergence on RMS density matrix=1.00D-08 within  32 cycles.
 Requested convergence on MAX density matrix=1.00D-06.
 Requested convergence on             energy=1.00D-06.
 No special actions if energy rises.
 Integral accuracy reduced to 1.0D-05 until final iterations.
 Initial convergence to 1.0D-05 achieved.  Increase integral accuracy.
 SCF Done:  E(RB3LYP) =  -486.597252321     A.U. after   13 cycles
            NFock= 13  Conv=0.55D-08     -V/T= 2.0096
 QCSCF skips out because SCF is already converged.

 **********************************************************************

            Population analysis using the SCF density.

 **********************************************************************

 Orbital symmetries:
       Occupied  (A) (A) (A) (A) (A) (A) (A) (A) (A) (A) (A) (A)
                 (A) (A) (A) (A) (A) (A) (A) (A) (A) (A) (A) (A)
                 (A) (A) (A) (A) (A) (A) (A) (A) (A) (A) (A) (A)
                 (A) (A) (A) (A) (A) (A) (A) (A) (A) (A) (A)
       Virtual   (A) (A) (A) (A) (A) (A) (A) (A) (A) (A) (A) (A)
                 (A) (A) (A) (A) (A) (A) (A) (A) (A) (A) (A) (A)
                 (A) (A) (A) (A) (A) (A) (A) (A) (A) (A) (A) (A)
                 (A) (A) (A) (A) (A) (A) (A) (A) (A) (A) (A) (A)
                 (A) (A) (A) (A) (A) (A) (A) (A) (A) (A) (A) (A)
                 (A) (A) (A) (A) (A) (A) (A) (A) (A) (A) (A) (A)
                 (A) (A) (A) (A) (A) (A) (A) (A) (A) (A) (A) (A)
                 (A) (A) (A) (A) (A) (A) (A) (A) (A) (A) (A) (A)
                 (A) (A) (A) (A) (A) (A) (A) (A) (A) (A) (A) (A)
                 (A) (A) (A) (A) (A) (A) (A) (A) (A) (A) (A) (A)
                 (A) (A) (A) (A) (A) (A) (A) (A) (A) (A) (A) (A)
                 (A) (A) (A) (A) (A) (A) (A) (A) (A) (A) (A) (A)
                 (A) (A) (A) (A) (A) (A) (A) (A) (A) (A) (A) (A)
                 (A) (A) (A) (A) (A) (A) (A) (A) (A) (A) (A) (A)
                 (A) (A) (A) (A) (A) (A) (A)
 The electronic state is 1-A.
 Alpha  occ. eigenvalues --  -14.30528 -10.22158 -10.22039 -10.19739 -10.17825
 Alpha  occ. eigenvalues --  -10.17647 -10.17557 -10.17531 -10.17515 -10.17220
 Alpha  occ. eigenvalues --  -10.16870 -10.15906  -0.90295  -0.84812  -0.78882
 Alpha  occ. eigenvalues --   -0.75005  -0.71332  -0.68811  -0.67345  -0.65963
 Alpha  occ. eigenvalues --   -0.62240  -0.57442  -0.55743  -0.50563  -0.49043
 Alpha  occ. eigenvalues --   -0.47603  -0.45422  -0.43907  -0.43609  -0.42121
 Alpha  occ. eigenvalues --   -0.41533  -0.39995  -0.39686  -0.38692  -0.38420
 Alpha  occ. eigenvalues --   -0.36274  -0.35582  -0.35063  -0.34338  -0.33778
 Alpha  occ. eigenvalues --   -0.33164  -0.32468  -0.32315  -0.31643  -0.31211
 Alpha  occ. eigenvalues --   -0.27491  -0.20425
 Alpha virt. eigenvalues --    0.00733   0.07362   0.09272   0.10195   0.11736
 Alpha virt. eigenvalues --    0.12650   0.13278   0.14755   0.15113   0.15719
 Alpha virt. eigenvalues --    0.16149   0.16480   0.17602   0.17898   0.18390
 Alpha virt. eigenvalues --    0.18937   0.19025   0.19832   0.20098   0.20767
 Alpha virt. eigenvalues --    0.20951   0.21819   0.22258   0.23222   0.23807
 Alpha virt. eigenvalues --    0.25540   0.26145   0.26602   0.27751   0.31011
 Alpha virt. eigenvalues --    0.31069   0.31228   0.34606   0.41099   0.49943
 Alpha virt. eigenvalues --    0.50527   0.52210   0.52927   0.54391   0.55536
 Alpha virt. eigenvalues --    0.56278   0.56580   0.57132   0.59735   0.60278
 Alpha virt. eigenvalues --    0.61227   0.62239   0.63621   0.64603   0.65705
 Alpha virt. eigenvalues --    0.68487   0.69105   0.69964   0.71714   0.73044
 Alpha virt. eigenvalues --    0.74297   0.74605   0.75833   0.76365   0.80840
 Alpha virt. eigenvalues --    0.83069   0.83720   0.84099   0.85224   0.85829
 Alpha virt. eigenvalues --    0.87307   0.87850   0.88291   0.88914   0.89524
 Alpha virt. eigenvalues --    0.90170   0.90610   0.91570   0.92152   0.92689
 Alpha virt. eigenvalues --    0.93878   0.94594   0.95224   0.95710   0.96405
 Alpha virt. eigenvalues --    0.96544   0.97876   0.98611   0.99859   1.03906
 Alpha virt. eigenvalues --    1.04286   1.05051   1.06152   1.09113   1.10069
 Alpha virt. eigenvalues --    1.15236   1.17890   1.19795   1.25751   1.32456
 Alpha virt. eigenvalues --    1.34682   1.35413   1.40297   1.43238   1.46216
 Alpha virt. eigenvalues --    1.50050   1.53411   1.57905   1.60053   1.64909
 Alpha virt. eigenvalues --    1.68964   1.69799   1.72574   1.73704   1.75168
 Alpha virt. eigenvalues --    1.76013   1.80762   1.81574   1.84023   1.85228
 Alpha virt. eigenvalues --    1.86047   1.87948   1.88972   1.90348   1.91322
 Alpha virt. eigenvalues --    1.93751   1.98779   2.00462   2.03875   2.05027
 Alpha virt. eigenvalues --    2.05445   2.07246   2.08007   2.08595   2.10272
 Alpha virt. eigenvalues --    2.10803   2.14829   2.16435   2.19368   2.20477
 Alpha virt. eigenvalues --    2.23063   2.24378   2.26559   2.26963   2.28248
 Alpha virt. eigenvalues --    2.28400   2.31004   2.32202   2.34684   2.39327
 Alpha virt. eigenvalues --    2.40980   2.45688   2.46530   2.48004   2.52211
 Alpha virt. eigenvalues --    2.54922   2.56340   2.59657   2.61233   2.67972
 Alpha virt. eigenvalues --    2.68926   2.71716   2.73157   2.76511   2.82328
 Alpha virt. eigenvalues --    2.88783   2.98622   3.23263   4.01359   4.16417
 Alpha virt. eigenvalues --    4.21959   4.24530   4.29719   4.32621   4.33154
 Alpha virt. eigenvalues --    4.37441   4.47248   4.57682   4.70142   4.80586
          Condensed to atoms (all electrons):
               1          2          3          4          5          6
     1  C    5.150580   0.374485  -0.045971   0.002964   0.000795  -0.049364
     2  C    0.374485   5.024172   0.376856  -0.057216  -0.056304   0.367729
     3  C   -0.045971   0.376856   5.127629   0.377444  -0.070202  -0.093244
     4  C    0.002964  -0.057216   0.377444   5.040793   0.378423  -0.077046
     5  C    0.000795  -0.056304  -0.070202   0.378423   5.025382   0.373007
     6  C   -0.049364   0.367729  -0.093244  -0.077046   0.373007   5.136789
     7  C   -0.051880   0.271150  -0.028306   0.001193   0.002469  -0.031742
     8  N   -0.000675  -0.058561  -0.004857  -0.000046  -0.000071   0.003659
     9  C   -0.000092  -0.014967   0.003121  -0.000129   0.000004   0.000107
    10  C   -0.000063   0.002018  -0.004862  -0.000296   0.000001  -0.000020
    11  C   -0.000788   0.004680  -0.005222   0.000286  -0.000009  -0.000063
    12  C    0.000000  -0.000244  -0.000014  -0.000000   0.000000   0.000000
    13  H    0.365731  -0.031428  -0.006038   0.000012  -0.000218   0.005854
    14  H    0.365888  -0.030121  -0.005349   0.000396   0.001157  -0.006133
    15  H    0.366130  -0.032161   0.005775  -0.000194   0.000028  -0.006294
    16  H   -0.009838  -0.037790   0.369761  -0.040692  -0.001012   0.002464
    17  H    0.003048  -0.031532   0.360235  -0.033790   0.006176   0.005383
    18  H    0.000031  -0.003408  -0.037563   0.376312  -0.040193  -0.000793
    19  H   -0.000221   0.005297  -0.031053   0.369748  -0.031588   0.006310
    20  H   -0.000088   0.004922   0.005971  -0.031399   0.371261  -0.030580
    21  H    0.000857  -0.003200  -0.001895  -0.039169   0.375872  -0.037629
    22  H    0.005484  -0.046613   0.001797  -0.000961  -0.037568   0.370660
    23  H   -0.009222  -0.029559   0.006315   0.006118  -0.030607   0.360402
    24  H    0.000545  -0.103950   0.004998  -0.000199   0.000178  -0.004571
    25  H    0.000022  -0.000747  -0.003009   0.000694  -0.000046   0.000004
    26  H    0.000002  -0.000020   0.000068   0.000005   0.000000  -0.000001
    27  H    0.000001   0.000056   0.000195  -0.000003   0.000000  -0.000000
    28  H   -0.000348   0.000139   0.000191  -0.000004   0.000000   0.000003
    29  H    0.000033  -0.000104   0.000089  -0.000005   0.000000   0.000000
    30  H   -0.000662  -0.001307   0.000584  -0.000007   0.000009   0.000074
    31  H   -0.000002   0.000013   0.000002  -0.000000  -0.000000   0.000000
    32  H    0.000000   0.000020   0.000000  -0.000000  -0.000000  -0.000000
    33  H   -0.000000   0.000011   0.000000   0.000000   0.000000  -0.000000
               7          8          9         10         11         12
     1  C   -0.051880  -0.000675  -0.000092  -0.000063  -0.000788   0.000000
     2  C    0.271150  -0.058561  -0.014967   0.002018   0.004680  -0.000244
     3  C   -0.028306  -0.004857   0.003121  -0.004862  -0.005222  -0.000014
     4  C    0.001193  -0.000046  -0.000129  -0.000296   0.000286  -0.000000
     5  C    0.002469  -0.000071   0.000004   0.000001  -0.000009   0.000000
     6  C   -0.031742   0.003659   0.000107  -0.000020  -0.000063   0.000000
     7  C    4.886031   0.640621  -0.071341   0.000348  -0.000681   0.001731
     8  N    0.640621   6.750488   0.272071  -0.054719  -0.052566  -0.094095
     9  C   -0.071341   0.272071   4.709952   0.362447   0.358495   0.412826
    10  C    0.000348  -0.054719   0.362447   5.186554  -0.046262  -0.073159
    11  C   -0.000681  -0.052566   0.358495  -0.046262   5.211581  -0.084974
    12  C    0.001731  -0.094095   0.412826  -0.073159  -0.084974   5.200985
    13  H   -0.002623   0.001530  -0.000130   0.000004   0.000831   0.000006
    14  H    0.004756  -0.000051  -0.000008   0.000002   0.000025  -0.000000
    15  H   -0.003453  -0.000104   0.000050   0.000000  -0.000011   0.000001
    16  H    0.003274   0.000035  -0.000154   0.000159  -0.000286  -0.000001
    17  H   -0.006645   0.001571   0.002034   0.000214  -0.003844   0.000046
    18  H    0.001097   0.000063  -0.000017   0.000132  -0.000006   0.000000
    19  H   -0.000108  -0.000002   0.000003   0.000003  -0.000002   0.000000
    20  H   -0.000095   0.000002   0.000000   0.000000   0.000000   0.000000
    21  H    0.000154   0.000001  -0.000000  -0.000000   0.000000  -0.000000
    22  H   -0.002579   0.000588   0.000030  -0.000019  -0.000000   0.000001
    23  H   -0.000799  -0.000139  -0.000002   0.000000   0.000001   0.000000
    24  H    0.362290  -0.060275   0.009433  -0.000480  -0.000559  -0.000063
    25  H    0.002105  -0.002851  -0.027664   0.359684  -0.003779   0.006137
    26  H   -0.000100   0.004109  -0.025305   0.359382  -0.004388  -0.001719
    27  H    0.000536   0.000029  -0.028341   0.367580   0.005645  -0.009942
    28  H    0.001419  -0.002084  -0.028470   0.005550   0.369424  -0.007934
    29  H   -0.000095   0.004040  -0.023792  -0.004153   0.353856  -0.002177
    30  H    0.000821  -0.001535  -0.027632  -0.004863   0.360830   0.006264
    31  H    0.000455  -0.000141  -0.026272   0.005887  -0.004396   0.362177
    32  H    0.000277   0.002323  -0.024446  -0.005259   0.006097   0.359570
    33  H   -0.000046   0.006625  -0.030098  -0.002662  -0.000424   0.344329
              13         14         15         16         17         18
     1  C    0.365731   0.365888   0.366130  -0.009838   0.003048   0.000031
     2  C   -0.031428  -0.030121  -0.032161  -0.037790  -0.031532  -0.003408
     3  C   -0.006038  -0.005349   0.005775   0.369761   0.360235  -0.037563
     4  C    0.000012   0.000396  -0.000194  -0.040692  -0.033790   0.376312
     5  C   -0.000218   0.001157   0.000028  -0.001012   0.006176  -0.040193
     6  C    0.005854  -0.006133  -0.006294   0.002464   0.005383  -0.000793
     7  C   -0.002623   0.004756  -0.003453   0.003274  -0.006645   0.001097
     8  N    0.001530  -0.000051  -0.000104   0.000035   0.001571   0.000063
     9  C   -0.000130  -0.000008   0.000050  -0.000154   0.002034  -0.000017
    10  C    0.000004   0.000002   0.000000   0.000159   0.000214   0.000132
    11  C    0.000831   0.000025  -0.000011  -0.000286  -0.003844  -0.000006
    12  C    0.000006  -0.000000   0.000001  -0.000001   0.000046   0.000000
    13  H    0.569012  -0.030793  -0.030032   0.001515   0.000162  -0.000005
    14  H   -0.030793   0.579949  -0.031114   0.003954  -0.000033   0.000002
    15  H   -0.030032  -0.031114   0.577810   0.000338  -0.000183   0.000010
    16  H    0.001515   0.003954   0.000338   0.607751  -0.037005   0.005839
    17  H    0.000162  -0.000033  -0.000183  -0.037005   0.576521  -0.009255
    18  H   -0.000005   0.000002   0.000010   0.005839  -0.009255   0.601103
    19  H    0.000001  -0.000054   0.000005  -0.007640   0.001935  -0.035071
    20  H    0.000005  -0.000071  -0.000003  -0.000097  -0.000206  -0.005984
    21  H   -0.000080   0.001691   0.000042   0.002712  -0.000091   0.005753
    22  H   -0.000205  -0.000025   0.000126  -0.000130  -0.000116   0.002983
    23  H    0.000220   0.001338   0.003517  -0.000141  -0.000158  -0.000059
    24  H    0.000051  -0.000346   0.003764  -0.000173   0.000152  -0.000049
    25  H    0.000002  -0.000001  -0.000000   0.000050   0.007253   0.001856
    26  H   -0.000000  -0.000000   0.000000  -0.000005   0.000136  -0.000005
    27  H   -0.000001   0.000000  -0.000000  -0.000002  -0.000176  -0.000013
    28  H    0.001517   0.000017  -0.000001   0.000004  -0.000009  -0.000000
    29  H    0.000014  -0.000001   0.000000  -0.000014   0.000215  -0.000000
    30  H    0.002143  -0.000029   0.000011   0.001386   0.004630   0.000016
    31  H   -0.000002   0.000000  -0.000000  -0.000000   0.000000  -0.000000
    32  H   -0.000000   0.000000  -0.000000   0.000000   0.000001   0.000000
    33  H   -0.000000   0.000000  -0.000000   0.000000  -0.000004  -0.000000
              19         20         21         22         23         24
     1  C   -0.000221  -0.000088   0.000857   0.005484  -0.009222   0.000545
     2  C    0.005297   0.004922  -0.003200  -0.046613  -0.029559  -0.103950
     3  C   -0.031053   0.005971  -0.001895   0.001797   0.006315   0.004998
     4  C    0.369748  -0.031399  -0.039169  -0.000961   0.006118  -0.000199
     5  C   -0.031588   0.371261   0.375872  -0.037568  -0.030607   0.000178
     6  C    0.006310  -0.030580  -0.037629   0.370660   0.360402  -0.004571
     7  C   -0.000108  -0.000095   0.000154  -0.002579  -0.000799   0.362290
     8  N   -0.000002   0.000002   0.000001   0.000588  -0.000139  -0.060275
     9  C    0.000003   0.000000  -0.000000   0.000030  -0.000002   0.009433
    10  C    0.000003   0.000000  -0.000000  -0.000019   0.000000  -0.000480
    11  C   -0.000002   0.000000   0.000000  -0.000000   0.000001  -0.000559
    12  C    0.000000   0.000000  -0.000000   0.000001   0.000000  -0.000063
    13  H    0.000001   0.000005  -0.000080  -0.000205   0.000220   0.000051
    14  H   -0.000054  -0.000071   0.001691  -0.000025   0.001338  -0.000346
    15  H    0.000005  -0.000003   0.000042   0.000126   0.003517   0.003764
    16  H   -0.007640  -0.000097   0.002712  -0.000130  -0.000141  -0.000173
    17  H    0.001935  -0.000206  -0.000091  -0.000116  -0.000158   0.000152
    18  H   -0.035071  -0.005984   0.005753   0.002983  -0.000059  -0.000049
    19  H    0.594354   0.000705  -0.006125  -0.000110  -0.000218   0.000004
    20  H    0.000705   0.591726  -0.035412  -0.007632   0.001481   0.000005
    21  H   -0.006125  -0.035412   0.605709   0.005697  -0.007093  -0.000014
    22  H   -0.000110  -0.007632   0.005697   0.598270  -0.035778   0.004771
    23  H   -0.000218   0.001481  -0.007093  -0.035778   0.597374   0.000929
    24  H    0.000004   0.000005  -0.000014   0.004771   0.000929   0.659418
    25  H   -0.000036   0.000001   0.000001   0.000030  -0.000000  -0.000016
    26  H   -0.000000  -0.000000  -0.000000   0.000000   0.000000   0.000007
    27  H    0.000000  -0.000000  -0.000000  -0.000002   0.000000  -0.000039
    28  H    0.000000  -0.000000   0.000000  -0.000000  -0.000000  -0.000076
    29  H    0.000000  -0.000000   0.000000   0.000000  -0.000000   0.000012
    30  H    0.000002  -0.000000  -0.000001  -0.000001  -0.000001  -0.000006
    31  H   -0.000000  -0.000000   0.000000  -0.000000  -0.000000  -0.000042
    32  H   -0.000000  -0.000000   0.000000  -0.000000   0.000000  -0.000058
    33  H   -0.000000  -0.000000   0.000000  -0.000000   0.000000  -0.000003
              25         26         27         28         29         30
     1  C    0.000022   0.000002   0.000001  -0.000348   0.000033  -0.000662
     2  C   -0.000747  -0.000020   0.000056   0.000139  -0.000104  -0.001307
     3  C   -0.003009   0.000068   0.000195   0.000191   0.000089   0.000584
     4  C    0.000694   0.000005  -0.000003  -0.000004  -0.000005  -0.000007
     5  C   -0.000046   0.000000   0.000000   0.000000   0.000000   0.000009
     6  C    0.000004  -0.000001  -0.000000   0.000003   0.000000   0.000074
     7  C    0.002105  -0.000100   0.000536   0.001419  -0.000095   0.000821
     8  N   -0.002851   0.004109   0.000029  -0.002084   0.004040  -0.001535
     9  C   -0.027664  -0.025305  -0.028341  -0.028470  -0.023792  -0.027632
    10  C    0.359684   0.359382   0.367580   0.005550  -0.004153  -0.004863
    11  C   -0.003779  -0.004388   0.005645   0.369424   0.353856   0.360830
    12  C    0.006137  -0.001719  -0.009942  -0.007934  -0.002177   0.006264
    13  H    0.000002  -0.000000  -0.000001   0.001517   0.000014   0.002143
    14  H   -0.000001  -0.000000   0.000000   0.000017  -0.000001  -0.000029
    15  H   -0.000000   0.000000  -0.000000  -0.000001   0.000000   0.000011
    16  H    0.000050  -0.000005  -0.000002   0.000004  -0.000014   0.001386
    17  H    0.007253   0.000136  -0.000176  -0.000009   0.000215   0.004630
    18  H    0.001856  -0.000005  -0.000013  -0.000000  -0.000000   0.000016
    19  H   -0.000036  -0.000000   0.000000   0.000000   0.000000   0.000002
    20  H    0.000001  -0.000000  -0.000000  -0.000000  -0.000000  -0.000000
    21  H    0.000001  -0.000000  -0.000000   0.000000   0.000000  -0.000001
    22  H    0.000030   0.000000  -0.000002  -0.000000   0.000000  -0.000001
    23  H   -0.000000   0.000000   0.000000  -0.000000  -0.000000  -0.000001
    24  H   -0.000016   0.000007  -0.000039  -0.000076   0.000012  -0.000006
    25  H    0.567879  -0.028475  -0.031605  -0.000098   0.000070   0.000917
    26  H   -0.028475   0.578642  -0.029526  -0.000030   0.002797   0.000203
    27  H   -0.031605  -0.029526   0.567317  -0.000156  -0.000078  -0.000058
    28  H   -0.000098  -0.000030  -0.000156   0.570411  -0.029364  -0.033378
    29  H    0.000070   0.002797  -0.000078  -0.029364   0.587726  -0.029177
    30  H    0.000917   0.000203  -0.000058  -0.033378  -0.029177   0.566975
    31  H   -0.000216  -0.000108   0.000120   0.004874  -0.000122  -0.000032
    32  H   -0.000057  -0.000054   0.005480   0.000048  -0.000057  -0.000213
    33  H   -0.000060   0.001769   0.000441   0.000274   0.001459  -0.000082
              31         32         33
     1  C   -0.000002   0.000000  -0.000000
     2  C    0.000013   0.000020   0.000011
     3  C    0.000002   0.000000   0.000000
     4  C   -0.000000  -0.000000   0.000000
     5  C   -0.000000  -0.000000   0.000000
     6  C    0.000000  -0.000000  -0.000000
     7  C    0.000455   0.000277  -0.000046
     8  N   -0.000141   0.002323   0.006625
     9  C   -0.026272  -0.024446  -0.030098
    10  C    0.005887  -0.005259  -0.002662
    11  C   -0.004396   0.006097  -0.000424
    12  C    0.362177   0.359570   0.344329
    13  H   -0.000002  -0.000000  -0.000000
    14  H    0.000000   0.000000   0.000000
    15  H   -0.000000  -0.000000  -0.000000
    16  H   -0.000000   0.000000   0.000000
    17  H    0.000000   0.000001  -0.000004
    18  H   -0.000000   0.000000  -0.000000
    19  H   -0.000000  -0.000000  -0.000000
    20  H   -0.000000  -0.000000  -0.000000
    21  H    0.000000   0.000000   0.000000
    22  H   -0.000000  -0.000000  -0.000000
    23  H   -0.000000   0.000000   0.000000
    24  H   -0.000042  -0.000058  -0.000003
    25  H   -0.000216  -0.000057  -0.000060
    26  H   -0.000108  -0.000054   0.001769
    27  H    0.000120   0.005480   0.000441
    28  H    0.004874   0.000048   0.000274
    29  H   -0.000122  -0.000057   0.001459
    30  H   -0.000032  -0.000213  -0.000082
    31  H    0.575118  -0.027758  -0.029842
    32  H   -0.027758   0.568439  -0.028937
    33  H   -0.029842  -0.028937   0.612116
 Mulliken charges:
               1
     1  C   -0.467379
     2  C    0.107684
     3  C   -0.303445
     4  C   -0.273230
     5  C   -0.266945
     6  C   -0.294966
     7  C    0.019766
     8  N   -0.354986
     9  C    0.198290
    10  C   -0.453146
    11  C   -0.463492
    12  C   -0.419750
    13  H    0.152945
    14  H    0.144956
    15  H    0.145946
    16  H    0.135736
    17  H    0.153338
    18  H    0.137223
    19  H    0.133860
    20  H    0.135487
    21  H    0.132219
    22  H    0.141302
    23  H    0.136081
    24  H    0.124361
    25  H    0.151957
    26  H    0.142615
    27  H    0.152541
    28  H    0.148082
    29  H    0.138827
    30  H    0.154119
    31  H    0.140285
    32  H    0.144586
    33  H    0.125135
 Sum of Mulliken charges =   0.00000
 Mulliken charges with hydrogens summed into heavy atoms:
               1
     1  C   -0.023532
     2  C    0.107684
     3  C   -0.014371
     4  C   -0.002147
     5  C    0.000762
     6  C   -0.017584
     7  C    0.144126
     8  N   -0.354986
     9  C    0.198290
    10  C   -0.006034
    11  C   -0.022464
    12  C   -0.009745
 Electronic spatial extent (au):  <R**2>=           2518.0501
 Charge=              0.0000 electrons
 Dipole moment (field-independent basis, Debye):
    X=             -1.2017    Y=              0.5103    Z=              1.0866  Tot=              1.6985
 Quadrupole moment (field-independent basis, Debye-Ang):
   XX=            -76.9648   YY=            -76.8921   ZZ=            -78.3497
   XY=              2.1122   XZ=              2.1870   YZ=             -0.8862
 Traceless Quadrupole moment (field-independent basis, Debye-Ang):
   XX=              0.4374   YY=              0.5101   ZZ=             -0.9475
   XY=              2.1122   XZ=              2.1870   YZ=             -0.8862
 Octapole moment (field-independent basis, Debye-Ang**2):
  XXX=             -0.9446  YYY=             -1.8026  ZZZ=              0.1277  XYY=             -0.0540
  XXY=              2.8696  XXZ=              5.0285  XZZ=             -4.1865  YZZ=              2.1572
  YYZ=             -0.8701  XYZ=             -1.9195
 Hexadecapole moment (field-independent basis, Debye-Ang**3):
 XXXX=          -2393.4333 YYYY=           -656.7586 ZZZZ=           -446.4517 XXXY=             12.4129
 XXXZ=              4.1464 YYYX=             -0.9901 YYYZ=              2.9740 ZZZX=             -0.4605
 ZZZY=             -1.1636 XXYY=           -501.2529 XXZZ=           -466.4026 YYZZ=           -181.1775
 XXYZ=             -3.5153 YYXZ=              4.2848 ZZXY=              3.3663
 N-N= 7.685792746656D+02 E-N=-2.662669088766D+03  KE= 4.819689955635D+02
 Calling FoFJK, ICntrl=      2127 FMM=F ISym2X=0 I1Cent= 0 IOpClX= 0 NMat=1 NMatS=1 NMatT=0.
 ***** Axes restored to original set *****
 -------------------------------------------------------------------
 Center     Atomic                   Forces (Hartrees/Bohr)
 Number     Number              X              Y              Z
 -------------------------------------------------------------------
      1        6           0.006712869   -0.002819989    0.001346169
      2        6           0.007596861    0.011672991   -0.000260073
      3        6          -0.007731492   -0.011356537   -0.001400278
      4        6          -0.007330175   -0.003841615   -0.004534580
      5        6          -0.004210448    0.007715512   -0.000484035
      6        6          -0.000370781    0.010708622   -0.000757908
      7        6           0.003773889   -0.023263922    0.010697575
      8        7           0.003227716    0.023714544    0.003845258
      9        6           0.005452099   -0.002423324    0.003584916
     10        6          -0.009047761    0.000662380    0.001751980
     11        6          -0.000576703   -0.006711364   -0.009399009
     12        6           0.003013691   -0.000638929    0.004980235
     13        1          -0.000500546   -0.000623371   -0.000661541
     14        1          -0.001892284    0.000538841    0.000286908
     15        1          -0.000365783    0.000368142    0.000269143
     16        1           0.003180969    0.000764325    0.000910255
     17        1           0.004410144   -0.004094722    0.003560794
     18        1          -0.001046667    0.000987602    0.000645083
     19        1          -0.002590792   -0.001833193    0.001617300
     20        1          -0.000038407    0.002526731   -0.002571139
     21        1          -0.001142576   -0.000343722   -0.001472426
     22        1           0.002053226   -0.001598404    0.000595373
     23        1           0.002962602   -0.000781647    0.002460271
     24        1          -0.004645015   -0.001749552   -0.006033216
     25        1          -0.000063787    0.000122541   -0.004802705
     26        1           0.001666542   -0.000548933   -0.000162662
     27        1           0.003184104   -0.000378673   -0.000561649
     28        1          -0.000260489    0.000995590    0.002668216
     29        1           0.000506494    0.000055716    0.001428718
     30        1          -0.002965696    0.001890011   -0.001485346
     31        1          -0.001062299    0.000277481   -0.001902717
     32        1          -0.001367046    0.000809656   -0.002847549
     33        1          -0.000532459   -0.000802790   -0.001311362
 -------------------------------------------------------------------
 Cartesian Forces:  Max     0.023714544 RMS     0.005067144

 GradGradGradGradGradGradGradGradGradGradGradGradGradGradGradGradGradGrad
 Berny optimization.
 FormGI is forming the generalized inverse of G from B-inverse, IUseBI=4.
 Internal  Forces:  Max     0.024124951 RMS     0.003180548
 Search for a local minimum.
 Step number   1 out of a maximum of  198
 All quantities printed in internal units (Hartrees-Bohrs-Radians)
 Mixed Optimization -- RFO/linear search
 Second derivative matrix not updated -- first step.
 ITU=  0
     Eigenvalues ---    0.00230   0.00240   0.00337   0.00339   0.00385
     Eigenvalues ---    0.00400   0.00701   0.01057   0.01126   0.02075
     Eigenvalues ---    0.02421   0.03330   0.04071   0.04308   0.04347
     Eigenvalues ---    0.04558   0.04974   0.05124   0.05190   0.05228
     Eigenvalues ---    0.05251   0.05344   0.05346   0.05406   0.05439
     Eigenvalues ---    0.05445   0.05495   0.05542   0.05558   0.05703
     Eigenvalues ---    0.06234   0.06818   0.06898   0.07125   0.07264
     Eigenvalues ---    0.07363   0.07510   0.08901   0.09401   0.11125
     Eigenvalues ---    0.12862   0.15616   0.15989   0.16000   0.16000
     Eigenvalues ---    0.16000   0.16000   0.16000   0.16000   0.16000
     Eigenvalues ---    0.16000   0.16000   0.16000   0.16000   0.16000
     Eigenvalues ---    0.16179   0.17048   0.20540   0.22010   0.25000
     Eigenvalues ---    0.25091   0.26947   0.27750   0.28539   0.29008
     Eigenvalues ---    0.29198   0.29390   0.29536   0.29642   0.29930
     Eigenvalues ---    0.32758   0.33845   0.33912   0.33978   0.34027
     Eigenvalues ---    0.34064   0.34074   0.34083   0.34088   0.34091
     Eigenvalues ---    0.34109   0.34124   0.34161   0.34185   0.34187
     Eigenvalues ---    0.34198   0.34378   0.34408   0.34888   0.35078
     Eigenvalues ---    0.35809   0.38515   0.74276
 RFO step:  Lambda=-9.06384295D-03 EMin= 2.30000000D-03
 Linear search not attempted -- first point.
 Iteration  1 RMS(Cart)=  0.09394509 RMS(Int)=  0.00210639
 Iteration  2 RMS(Cart)=  0.00442480 RMS(Int)=  0.00018166
 Iteration  3 RMS(Cart)=  0.00000969 RMS(Int)=  0.00018163
 Iteration  4 RMS(Cart)=  0.00000000 RMS(Int)=  0.00018163
 Variable       Old X    -DE/DX   Delta X   Delta X   Delta X     New X
                                 (Linear)    (Quad)   (Total)
    R1        2.90975   0.00246   0.00000   0.00834   0.00834   2.91809
    R2        2.07016   0.00036   0.00000   0.00104   0.00104   2.07119
    R3        2.07059   0.00034   0.00000   0.00098   0.00098   2.07158
    R4        2.07177   0.00004   0.00000   0.00012   0.00012   2.07189
    R5        2.90715   0.00992   0.00000   0.03169   0.03159   2.93874
    R6        2.94796   0.00775   0.00000   0.02475   0.02466   2.97262
    R7        2.88898   0.00108   0.00000   0.00353   0.00353   2.89252
    R8        2.87794   0.01013   0.00000   0.03497   0.03501   2.91295
    R9        2.07479  -0.00048   0.00000  -0.00137  -0.00137   2.07342
   R10        2.04381   0.00463   0.00000   0.01260   0.01260   2.05641
   R11        2.85732   0.01202   0.00000   0.03908   0.03921   2.89653
   R12        2.07206   0.00108   0.00000   0.00309   0.00309   2.07515
   R13        2.06696   0.00137   0.00000   0.00387   0.00387   2.07083
   R14        2.87179   0.00995   0.00000   0.03261   0.03264   2.90443
   R15        2.06646   0.00144   0.00000   0.00407   0.00407   2.07053
   R16        2.07122   0.00116   0.00000   0.00330   0.00330   2.07452
   R17        2.07592  -0.00057   0.00000  -0.00163  -0.00163   2.07429
   R18        2.06998   0.00034   0.00000   0.00097   0.00097   2.07095
   R19        2.41158  -0.01518   0.00000  -0.02019  -0.02019   2.39139
   R20        2.09478  -0.00527   0.00000  -0.01565  -0.01565   2.07913
   R21        2.73623   0.00648   0.00000   0.01644   0.01644   2.75267
   R22        2.89591   0.00325   0.00000   0.01079   0.01079   2.90670
   R23        2.88683   0.00634   0.00000   0.02076   0.02076   2.90759
   R24        2.92688  -0.00070   0.00000  -0.00244  -0.00244   2.92444
   R25        2.05857   0.00314   0.00000   0.00878   0.00878   2.06735
   R26        2.07019   0.00014   0.00000   0.00041   0.00041   2.07059
   R27        2.07367  -0.00131   0.00000  -0.00375  -0.00375   2.06992
   R28        2.07181  -0.00054   0.00000  -0.00155  -0.00155   2.07027
   R29        2.07222   0.00007   0.00000   0.00021   0.00021   2.07243
   R30        2.05549   0.00311   0.00000   0.00864   0.00864   2.06413
   R31        2.07190  -0.00072   0.00000  -0.00206  -0.00206   2.06984
   R32        2.07285  -0.00165   0.00000  -0.00473  -0.00473   2.06812
   R33        2.07147   0.00064   0.00000   0.00184   0.00184   2.07331
    A1        1.93455   0.00059   0.00000   0.00528   0.00525   1.93980
    A2        1.94652  -0.00293   0.00000  -0.02063  -0.02067   1.92585
    A3        1.94382  -0.00013   0.00000   0.00073   0.00068   1.94450
    A4        1.88478   0.00086   0.00000   0.00219   0.00218   1.88697
    A5        1.87086   0.00057   0.00000   0.00973   0.00969   1.88055
    A6        1.88022   0.00121   0.00000   0.00386   0.00380   1.88402
    A7        1.92875   0.00138   0.00000   0.00547   0.00501   1.93376
    A8        1.90305  -0.00039   0.00000   0.01279   0.01284   1.91589
    A9        1.86952  -0.00070   0.00000  -0.01393  -0.01445   1.85507
   A10        1.80931   0.00079   0.00000   0.00846   0.00845   1.81775
   A11        2.09599  -0.00298   0.00000  -0.03272  -0.03286   2.06313
   A12        1.84870   0.00214   0.00000   0.02609   0.02638   1.87508
   A13        1.86302  -0.00013   0.00000  -0.00135  -0.00136   1.86166
   A14        1.92901  -0.00153   0.00000  -0.02634  -0.02643   1.90259
   A15        2.01618  -0.00299   0.00000  -0.02667  -0.02689   1.98929
   A16        1.89268   0.00105   0.00000   0.01564   0.01549   1.90817
   A17        1.90754   0.00363   0.00000   0.04165   0.04171   1.94926
   A18        1.85286   0.00026   0.00000   0.00044  -0.00081   1.85205
   A19        1.79960  -0.00024   0.00000   0.00446   0.00432   1.80391
   A20        1.92325   0.00029   0.00000  -0.00200  -0.00203   1.92122
   A21        1.95806   0.00026   0.00000   0.00664   0.00637   1.96443
   A22        1.93007  -0.00115   0.00000  -0.01789  -0.01780   1.91227
   A23        1.96272   0.00181   0.00000   0.02348   0.02334   1.98607
   A24        1.88964  -0.00094   0.00000  -0.01428  -0.01414   1.87550
   A25        1.78913  -0.00043   0.00000   0.00326   0.00329   1.79241
   A26        1.96278   0.00138   0.00000   0.01932   0.01925   1.98202
   A27        1.93081  -0.00067   0.00000  -0.01384  -0.01385   1.91695
   A28        1.96102   0.00029   0.00000   0.00502   0.00482   1.96584
   A29        1.92691   0.00060   0.00000   0.00302   0.00298   1.92988
   A30        1.89233  -0.00111   0.00000  -0.01583  -0.01573   1.87661
   A31        1.85172   0.00052   0.00000  -0.00111  -0.00116   1.85056
   A32        1.93667  -0.00106   0.00000  -0.01935  -0.01942   1.91726
   A33        1.97358  -0.00243   0.00000  -0.01790  -0.01798   1.95561
   A34        1.89196   0.00059   0.00000   0.01331   0.01327   1.90523
   A35        1.94307   0.00263   0.00000   0.03166   0.03166   1.97473
   A36        1.86634  -0.00013   0.00000  -0.00516  -0.00587   1.86047
   A37        2.36787   0.00195   0.00000   0.00888   0.00877   2.37663
   A38        1.96092  -0.00678   0.00000  -0.03813  -0.03825   1.92267
   A39        1.95216   0.00487   0.00000   0.03099   0.03089   1.98305
   A40        2.39272  -0.02412   0.00000  -0.09312  -0.09312   2.29959
   A41        1.92588  -0.00016   0.00000  -0.01077  -0.01116   1.91472
   A42        1.97603   0.00150   0.00000   0.00305   0.00245   1.97848
   A43        1.83264  -0.00078   0.00000   0.00893   0.00889   1.84153
   A44        1.99710  -0.00397   0.00000  -0.03313  -0.03341   1.96369
   A45        1.85916   0.00255   0.00000   0.02142   0.02171   1.88087
   A46        1.86007   0.00132   0.00000   0.01722   0.01743   1.87750
   A47        1.98268  -0.00237   0.00000  -0.01294  -0.01303   1.96965
   A48        1.94075  -0.00160   0.00000  -0.01337  -0.01353   1.92723
   A49        1.93345  -0.00284   0.00000  -0.01401  -0.01406   1.91938
   A50        1.88354   0.00163   0.00000   0.00485   0.00469   1.88823
   A51        1.84112   0.00372   0.00000   0.02921   0.02922   1.87033
   A52        1.87661   0.00203   0.00000   0.00981   0.00968   1.88629
   A53        1.93546  -0.00321   0.00000  -0.02087  -0.02097   1.91449
   A54        1.93308  -0.00055   0.00000  -0.00346  -0.00351   1.92957
   A55        1.98864  -0.00191   0.00000  -0.00918  -0.00922   1.97942
   A56        1.87698   0.00140   0.00000   0.00413   0.00402   1.88100
   A57        1.86159   0.00293   0.00000   0.01787   0.01778   1.87938
   A58        1.86266   0.00179   0.00000   0.01401   0.01402   1.87668
   A59        1.94152  -0.00204   0.00000  -0.01306  -0.01315   1.92837
   A60        1.94255  -0.00318   0.00000  -0.01832  -0.01841   1.92415
   A61        1.94390  -0.00081   0.00000  -0.00425  -0.00428   1.93962
   A62        1.86645   0.00261   0.00000   0.01446   0.01432   1.88076
   A63        1.88477   0.00142   0.00000   0.00756   0.00753   1.89230
   A64        1.88137   0.00237   0.00000   0.01584   0.01582   1.89720
    D1       -1.10898   0.00232   0.00000   0.04836   0.04843  -1.06055
    D2       -3.08683   0.00086   0.00000   0.02820   0.02820  -3.05863
    D3        1.20320  -0.00108   0.00000  -0.00135  -0.00140   1.20180
    D4        0.99170   0.00185   0.00000   0.04086   0.04091   1.03260
    D5       -0.98616   0.00038   0.00000   0.02070   0.02068  -0.96547
    D6       -2.97931  -0.00156   0.00000  -0.00885  -0.00892  -2.98823
    D7        3.09291   0.00130   0.00000   0.03215   0.03222   3.12512
    D8        1.11505  -0.00017   0.00000   0.01199   0.01199   1.12705
    D9       -0.87810  -0.00211   0.00000  -0.01756  -0.01761  -0.89571
   D10       -2.23383  -0.00002   0.00000  -0.00443  -0.00449  -2.23832
   D11       -0.17898   0.00034   0.00000  -0.00066  -0.00084  -0.17982
   D12        1.92472  -0.00265   0.00000  -0.03960  -0.03932   1.88540
   D13       -0.19700   0.00058   0.00000   0.01754   0.01756  -0.17945
   D14        1.85785   0.00094   0.00000   0.02131   0.02120   1.87905
   D15       -2.32164  -0.00204   0.00000  -0.01763  -0.01728  -2.33892
   D16        1.85992   0.00224   0.00000   0.03890   0.03877   1.89869
   D17       -2.36842   0.00260   0.00000   0.04267   0.04241  -2.32600
   D18       -0.26472  -0.00039   0.00000   0.00373   0.00394  -0.26078
   D19        1.79101   0.00128   0.00000   0.00868   0.00854   1.79956
   D20       -2.44068   0.00172   0.00000   0.01374   0.01353  -2.42715
   D21       -0.34365  -0.00088   0.00000  -0.01910  -0.01904  -0.36269
   D22       -0.26378  -0.00055   0.00000  -0.00784  -0.00780  -0.27157
   D23        1.78772  -0.00010   0.00000  -0.00277  -0.00281   1.78490
   D24       -2.39844  -0.00270   0.00000  -0.03561  -0.03538  -2.43382
   D25       -2.48552   0.00138   0.00000   0.01201   0.01195  -2.47357
   D26       -0.43403   0.00183   0.00000   0.01707   0.01693  -0.41710
   D27        1.66301  -0.00077   0.00000  -0.01577  -0.01564   1.64737
   D28       -1.68596   0.00078   0.00000   0.05373   0.05356  -1.63240
   D29        1.37546   0.00151   0.00000   0.08559   0.08519   1.46065
   D30        0.53101  -0.00038   0.00000   0.02123   0.02178   0.55279
   D31       -2.69075   0.00035   0.00000   0.05309   0.05341  -2.63734
   D32        2.56776   0.00052   0.00000   0.03297   0.03293   2.60069
   D33       -0.65401   0.00125   0.00000   0.06483   0.06457  -0.58944
   D34        0.58676  -0.00097   0.00000  -0.02237  -0.02239   0.56437
   D35       -1.47367   0.00037   0.00000  -0.00311  -0.00315  -1.47682
   D36        2.70269   0.00118   0.00000   0.01198   0.01196   2.71465
   D37       -1.49185   0.00035   0.00000   0.00116   0.00140  -1.49045
   D38        2.73091   0.00168   0.00000   0.02042   0.02064   2.75155
   D39        0.62408   0.00250   0.00000   0.03551   0.03576   0.65984
   D40        2.77869  -0.00247   0.00000  -0.03014  -0.03027   2.74842
   D41        0.71826  -0.00114   0.00000  -0.01088  -0.01103   0.70723
   D42       -1.38856  -0.00032   0.00000   0.00421   0.00408  -1.38448
   D43       -0.74064   0.00087   0.00000   0.01567   0.01581  -0.72483
   D44       -2.85051   0.00008   0.00000  -0.00210  -0.00211  -2.85262
   D45        1.31388   0.00103   0.00000   0.01473   0.01483   1.32871
   D46        1.31500   0.00054   0.00000   0.00754   0.00765   1.32266
   D47       -0.79486  -0.00024   0.00000  -0.01023  -0.01027  -0.80513
   D48       -2.91366   0.00070   0.00000   0.00660   0.00667  -2.90699
   D49       -2.85341  -0.00024   0.00000  -0.00730  -0.00733  -2.86074
   D50        1.31992  -0.00102   0.00000  -0.02508  -0.02526   1.29466
   D51       -0.79888  -0.00008   0.00000  -0.00824  -0.00832  -0.80720
   D52        0.62575  -0.00018   0.00000  -0.00576  -0.00586   0.61988
   D53       -1.45534   0.00048   0.00000   0.01067   0.01075  -1.44459
   D54        2.77969  -0.00124   0.00000  -0.00944  -0.00957   2.77012
   D55        2.73682   0.00135   0.00000   0.02184   0.02180   2.75862
   D56        0.65573   0.00201   0.00000   0.03827   0.03842   0.69415
   D57       -1.39242   0.00029   0.00000   0.01816   0.01810  -1.37433
   D58       -1.43155   0.00056   0.00000   0.00714   0.00707  -1.42448
   D59        2.77055   0.00121   0.00000   0.02358   0.02369   2.79424
   D60        0.72239  -0.00051   0.00000   0.00347   0.00337   0.72576
   D61       -0.04070   0.00085   0.00000   0.03065   0.03098  -0.00971
   D62       -3.10240   0.00050   0.00000   0.00116   0.00083  -3.10157
   D63       -1.39562   0.00198   0.00000   0.01063   0.01075  -1.38486
   D64        0.86831  -0.00236   0.00000  -0.04163  -0.04179   0.82652
   D65        2.89061  -0.00050   0.00000  -0.01401  -0.01397   2.87664
   D66        0.97664   0.00049   0.00000   0.02819   0.02834   1.00498
   D67        3.10549  -0.00031   0.00000   0.01499   0.01520   3.12069
   D68       -1.09190  -0.00069   0.00000   0.00931   0.00955  -1.08236
   D69       -1.27596   0.00191   0.00000   0.06152   0.06123  -1.21473
   D70        0.85289   0.00111   0.00000   0.04833   0.04809   0.90098
   D71        2.93868   0.00074   0.00000   0.04265   0.04244   2.98112
   D72        2.95673   0.00085   0.00000   0.04484   0.04485   3.00158
   D73       -1.19760   0.00005   0.00000   0.03165   0.03171  -1.16589
   D74        0.88819  -0.00033   0.00000   0.02597   0.02606   0.91425
   D75        0.95663   0.00113   0.00000   0.01347   0.01348   0.97011
   D76        3.03920   0.00044   0.00000   0.00285   0.00291   3.04210
   D77       -1.14386   0.00102   0.00000   0.01209   0.01208  -1.13179
   D78       -3.09930  -0.00129   0.00000  -0.02853  -0.02846  -3.12776
   D79       -1.01673  -0.00198   0.00000  -0.03915  -0.03903  -1.05576
   D80        1.08339  -0.00139   0.00000  -0.02992  -0.02986   1.05353
   D81       -1.04933   0.00047   0.00000  -0.00946  -0.00958  -1.05891
   D82        1.03324  -0.00021   0.00000  -0.02008  -0.02015   1.01309
   D83        3.13336   0.00037   0.00000  -0.01085  -0.01098   3.12239
   D84       -1.08306  -0.00046   0.00000  -0.00544  -0.00543  -1.08849
   D85        0.99646  -0.00062   0.00000  -0.00801  -0.00793   0.98853
   D86        3.09648  -0.00032   0.00000  -0.00324  -0.00320   3.09328
   D87       -3.12616  -0.00106   0.00000  -0.00708  -0.00705  -3.13321
   D88       -1.04663  -0.00122   0.00000  -0.00965  -0.00956  -1.05619
   D89        1.05339  -0.00092   0.00000  -0.00488  -0.00483   1.04856
   D90        1.01781   0.00152   0.00000   0.01091   0.01078   1.02859
   D91        3.09734   0.00135   0.00000   0.00834   0.00827   3.10561
   D92       -1.08583   0.00165   0.00000   0.01311   0.01300  -1.07283
         Item               Value     Threshold  Converged?
 Maximum Force            0.024125     0.000450     NO 
[...]
   226    C   11  px     Val( 2p)     0.60687       0.01622
   227    C   11  px     Ryd( 3p)     0.00111       0.74437
   228    C   11  px     Ryd( 4p)     0.00019       0.86619
   229    C   11  px     Ryd( 5p)     0.00001       3.18371
   230    C   11  py     Val( 2p)     0.60512       0.01613
   231    C   11  py     Ryd( 3p)     0.00129       0.61043
   232    C   11  py     Ryd( 4p)     0.00020       0.82092
   233    C   11  py     Ryd( 5p)     0.00001       3.16224
   234    C   11  pz     Val( 2p)     0.53983       0.02162
   235    C   11  pz     Ryd( 3p)     0.00103       1.60945
   236    C   11  pz     Ryd( 4p)     0.00041       2.66098
   237    C   11  pz     Ryd( 5p)     0.00004       3.16279
   238    C   11  dxy    Ryd( 3d)     0.00031       2.17066
   239    C   11  dxz    Ryd( 3d)     0.00038       2.20022
   240    C   11  dyz    Ryd( 3d)     0.00029       2.06616
   241    C   11  dx2y2  Ryd( 3d)     0.00041       2.23577
   242    C   11  dz2    Ryd( 3d)     0.00038       2.39849
 
   243    C   12  S      Cor( 1S)     0.99963      -9.91150
   244    C   12  S      Val( 2S)     0.53943      -0.13853
   245    C   12  S      Ryd( 4S)     0.00031       2.39650
   246    C   12  S      Ryd( 3S)     0.00052       1.12583
   247    C   12  S      Ryd( 5S)     0.00000      21.29906
   248    C   12  px     Val( 2p)     0.54045       0.02133
   249    C   12  px     Ryd( 3p)     0.00083       0.69954
   250    C   12  px     Ryd( 4p)     0.00003       1.45314
   251    C   12  px     Ryd( 5p)     0.00003       2.37411
   252    C   12  py     Val( 2p)     0.58947       0.01958
   253    C   12  py     Ryd( 3p)     0.00140       0.71801
   254    C   12  py     Ryd( 4p)     0.00002       1.46110
   255    C   12  py     Ryd( 5p)     0.00001       2.21598
   256    C   12  pz     Val( 2p)     0.60244       0.02072
   257    C   12  pz     Ryd( 3p)     0.00137       0.72149
   258    C   12  pz     Ryd( 4p)     0.00003       1.44145
   259    C   12  pz     Ryd( 5p)     0.00001       2.23390
   260    C   12  dxy    Ryd( 3d)     0.00028       2.25005
   261    C   12  dxz    Ryd( 3d)     0.00040       2.18784
   262    C   12  dyz    Ryd( 3d)     0.00016       2.02251
   263    C   12  dx2y2  Ryd( 3d)     0.00045       2.32534
   264    C   12  dz2    Ryd( 3d)     0.00044       2.32995
 
   265    H   13  S      Val( 1S)     0.39600       0.14993
   266    H   13  S      Ryd( 2S)     0.00067       0.70773
   267    H   13  S      Ryd( 4S)     0.00027       1.65668
   268    H   13  S      Ryd( 3S)     0.00001       0.88664
   269    H   13  px     Ryd( 2p)     0.00011       2.42502
   270    H   13  py     Ryd( 2p)     0.00006       1.95837
   271    H   13  pz     Ryd( 2p)     0.00010       2.34221
 
   272    H   14  S      Val( 1S)     0.39741       0.14079
   273    H   14  S      Ryd( 2S)     0.00082       0.51260
   274    H   14  S      Ryd( 4S)     0.00037       1.53265
   275    H   14  S      Ryd( 3S)     0.00003       1.18455
   276    H   14  px     Ryd( 2p)     0.00012       2.57768
   277    H   14  py     Ryd( 2p)     0.00005       1.95087
   278    H   14  pz     Ryd( 2p)     0.00008       2.18658
 
   279    H   15  S      Val( 1S)     0.39953       0.14059
   280    H   15  S      Ryd( 2S)     0.00059       0.45575
   281    H   15  S      Ryd( 4S)     0.00030       1.48086
   282    H   15  S      Ryd( 3S)     0.00002       1.33621
   283    H   15  px     Ryd( 2p)     0.00006       1.94723
   284    H   15  py     Ryd( 2p)     0.00012       2.67523
   285    H   15  pz     Ryd( 2p)     0.00007       2.06263
 
   286    H   16  S      Val( 1S)     0.39878       0.14638
   287    H   16  S      Ryd( 2S)     0.00114       0.54176
   288    H   16  S      Ryd( 4S)     0.00036       1.74938
   289    H   16  S      Ryd( 3S)     0.00001       1.14569
   290    H   16  px     Ryd( 2p)     0.00007       2.07109
   291    H   16  py     Ryd( 2p)     0.00007       1.96985
   292    H   16  pz     Ryd( 2p)     0.00014       2.85750
 
   293    H   17  S      Val( 1S)     0.39554       0.15982
   294    H   17  S      Ryd( 2S)     0.00132       0.76391
   295    H   17  S      Ryd( 4S)     0.00035       1.91204
   296    H   17  S      Ryd( 3S)     0.00001       0.76672
   297    H   17  px     Ryd( 2p)     0.00012       2.47726
   298    H   17  py     Ryd( 2p)     0.00010       2.34028
   299    H   17  pz     Ryd( 2p)     0.00006       2.07356
 
   300    H   18  S      Val( 1S)     0.40527       0.14318
   301    H   18  S      Ryd( 2S)     0.00069       0.46741
   302    H   18  S      Ryd( 4S)     0.00041       1.83143
   303    H   18  S      Ryd( 3S)     0.00001       1.12267
   304    H   18  px     Ryd( 2p)     0.00009       1.89134
   305    H   18  py     Ryd( 2p)     0.00009       2.39152
   306    H   18  pz     Ryd( 2p)     0.00012       2.54737
 
   307    H   19  S      Val( 1S)     0.39741       0.14993
   308    H   19  S      Ryd( 2S)     0.00074       0.40221
   309    H   19  S      Ryd( 4S)     0.00026       1.69942
   310    H   19  S      Ryd( 3S)     0.00001       1.13516
   311    H   19  px     Ryd( 2p)     0.00009       2.07380
   312    H   19  py     Ryd( 2p)     0.00010       2.34933
   313    H   19  pz     Ryd( 2p)     0.00012       2.38700
 
   314    H   20  S      Val( 1S)     0.39787       0.14776
   315    H   20  S      Ryd( 2S)     0.00069       0.40984
   316    H   20  S      Ryd( 4S)     0.00027       1.73831
   317    H   20  S      Ryd( 3S)     0.00002       1.15075
   318    H   20  px     Ryd( 2p)     0.00013       2.59700
   319    H   20  py     Ryd( 2p)     0.00010       1.98911
   320    H   20  pz     Ryd( 2p)     0.00012       2.24026
 
   321    H   21  S      Val( 1S)     0.40304       0.14247
   322    H   21  S      Ryd( 2S)     0.00096       0.46789
   323    H   21  S      Ryd( 4S)     0.00046       1.88408
   324    H   21  S      Ryd( 3S)     0.00001       1.03065
   325    H   21  px     Ryd( 2p)     0.00007       2.23665
   326    H   21  py     Ryd( 2p)     0.00011       2.06466
   327    H   21  pz     Ryd( 2p)     0.00015       2.58876
 
   328    H   22  S      Val( 1S)     0.40155       0.14310
   329    H   22  S      Ryd( 2S)     0.00085       0.52333
   330    H   22  S      Ryd( 4S)     0.00044       1.81236
   331    H   22  S      Ryd( 3S)     0.00001       1.05474
   332    H   22  px     Ryd( 2p)     0.00007       1.93452
   333    H   22  py     Ryd( 2p)     0.00007       2.11304
   334    H   22  pz     Ryd( 2p)     0.00012       2.74975
 
   335    H   23  S      Val( 1S)     0.39694       0.14886
   336    H   23  S      Ryd( 2S)     0.00064       0.42511
   337    H   23  S      Ryd( 4S)     0.00034       1.67380
   338    H   23  S      Ryd( 3S)     0.00001       1.17472
   339    H   23  px     Ryd( 2p)     0.00008       2.10000
   340    H   23  py     Ryd( 2p)     0.00014       2.72800
   341    H   23  pz     Ryd( 2p)     0.00005       1.98719
 
   342    H   24  S      Val( 1S)     0.42215       0.13170
   343    H   24  S      Ryd( 2S)     0.00042       0.58284
   344    H   24  S      Ryd( 3S)     0.00111       1.40619
   345    H   24  S      Ryd( 4S)     0.00007       2.86529
   346    H   24  px     Ryd( 2p)     0.00007       2.30685
   347    H   24  py     Ryd( 2p)     0.00012       2.04845
   348    H   24  pz     Ryd( 2p)     0.00020       2.47312
 
   349    H   25  S      Val( 1S)     0.39931       0.14411
   350    H   25  S      Ryd( 2S)     0.00052       0.66796
   351    H   25  S      Ryd( 4S)     0.00030       1.48939
   352    H   25  S      Ryd( 3S)     0.00002       1.08740
   353    H   25  px     Ryd( 2p)     0.00011       2.55311
   354    H   25  py     Ryd( 2p)     0.00008       2.17543
   355    H   25  pz     Ryd( 2p)     0.00007       1.94360
 
   356    H   26  S      Val( 1S)     0.39941       0.13505
   357    H   26  S      Ryd( 2S)     0.00046       0.43904
   358    H   26  S      Ryd( 4S)     0.00028       1.42300
   359    H   26  S      Ryd( 3S)     0.00002       1.25216
   360    H   26  px     Ryd( 2p)     0.00010       2.39821
   361    H   26  py     Ryd( 2p)     0.00008       2.11928
   362    H   26  pz     Ryd( 2p)     0.00008       2.15070
 
   363    H   27  S      Val( 1S)     0.39630       0.14402
   364    H   27  S      Ryd( 2S)     0.00033       0.48731
   365    H   27  S      Ryd( 4S)     0.00037       1.49117
   366    H   27  S      Ryd( 3S)     0.00001       1.19547
   367    H   27  px     Ryd( 2p)     0.00006       1.95920
   368    H   27  py     Ryd( 2p)     0.00005       1.93970
   369    H   27  pz     Ryd( 2p)     0.00013       2.77226
 
   370    H   28  S      Val( 1S)     0.39887       0.13950
   371    H   28  S      Ryd( 2S)     0.00056       0.60028
   372    H   28  S      Ryd( 4S)     0.00030       1.66958
   373    H   28  S      Ryd( 3S)     0.00001       1.11540
   374    H   28  px     Ryd( 2p)     0.00007       1.97838
   375    H   28  py     Ryd( 2p)     0.00013       2.75784
   376    H   28  pz     Ryd( 2p)     0.00006       1.98068
 
   377    H   29  S      Val( 1S)     0.39738       0.13941
   378    H   29  S      Ryd( 2S)     0.00051       0.48774
   379    H   29  S      Ryd( 4S)     0.00030       1.62881
   380    H   29  S      Ryd( 3S)     0.00001       1.12644
   381    H   29  px     Ryd( 2p)     0.00009       2.40226
   382    H   29  py     Ryd( 2p)     0.00007       2.07783
   383    H   29  pz     Ryd( 2p)     0.00008       2.19725
 
   384    H   30  S      Val( 1S)     0.39421       0.15416
   385    H   30  S      Ryd( 2S)     0.00119       0.64059
   386    H   30  S      Ryd( 4S)     0.00037       1.70180
   387    H   30  S      Ryd( 3S)     0.00002       1.02677
   388    H   30  px     Ryd( 2p)     0.00011       2.59998
   389    H   30  py     Ryd( 2p)     0.00008       2.14448
   390    H   30  pz     Ryd( 2p)     0.00006       2.04843
 
   391    H   31  S      Val( 1S)     0.39939       0.14327
   392    H   31  S      Ryd( 2S)     0.00031       0.47217
   393    H   31  S      Ryd( 3S)     0.00038       0.97066
   394    H   31  S      Ryd( 4S)     0.00005       1.79123
   395    H   31  px     Ryd( 2p)     0.00006       1.90964
   396    H   31  py     Ryd( 2p)     0.00014       2.78874
   397    H   31  pz     Ryd( 2p)     0.00007       1.97755
 
   398    H   32  S      Val( 1S)     0.39712       0.14861
   399    H   32  S      Ryd( 2S)     0.00048       0.51195
   400    H   32  S      Ryd( 3S)     0.00041       1.07196
   401    H   32  S      Ryd( 4S)     0.00006       1.67529
   402    H   32  px     Ryd( 2p)     0.00005       2.02034
   403    H   32  py     Ryd( 2p)     0.00005       1.92291
   404    H   32  pz     Ryd( 2p)     0.00015       2.74040
 
   405    H   33  S      Val( 1S)     0.40449       0.13528
   406    H   33  S      Ryd( 2S)     0.00029       0.47429
   407    H   33  S      Ryd( 3S)     0.00031       1.00298
   408    H   33  S      Ryd( 4S)     0.00004       1.68085
   409    H   33  px     Ryd( 2p)     0.00009       2.39087
   410    H   33  py     Ryd( 2p)     0.00008       2.04225
   411    H   33  pz     Ryd( 2p)     0.00009       2.19491

 WARNING:  Population inversion found on atom  C    1
           Population inversion found on atom  C    2
           Population inversion found on atom  C    3
           Population inversion found on atom  C    4
           Population inversion found on atom  C    5
           Population inversion found on atom  C    7
           Population inversion found on atom  N    8
           Population inversion found on atom  C   11
           Population inversion found on atom  C   12
           Population inversion found on atom  H   13
           Population inversion found on atom  H   14
           Population inversion found on atom  H   15
           Population inversion found on atom  H   16
           Population inversion found on atom  H   17
           Population inversion found on atom  H   18
           Population inversion found on atom  H   19
           Population inversion found on atom  H   20
           Population inversion found on atom  H   21
           Population inversion found on atom  H   22
           Population inversion found on atom  H   23
           Population inversion found on atom  H   24
           Population inversion found on atom  H   25
           Population inversion found on atom  H   26
           Population inversion found on atom  H   27
           Population inversion found on atom  H   28
           Population inversion found on atom  H   29
           Population inversion found on atom  H   30
           Population inversion found on atom  H   31
           Population inversion found on atom  H   33


 Summary of Natural Population Analysis:                  
                                                          
                                       Natural Population 
                Natural  -----------------------------------------------
    Atom  No    Charge         Core      Valence    Rydberg      Total
 -----------------------------------------------------------------------
      C    1   -0.27825      0.99962     2.27160    0.00704     3.27825
      C    2   -0.07838      0.99955     2.06595    0.01288     3.07838
      C    3   -0.19026      0.99960     2.18140    0.00926     3.19026
      C    4   -0.18840      0.99964     2.18049    0.00827     3.18840
      C    5   -0.19166      0.99963     2.18380    0.00822     3.19166
      C    6   -0.18552      0.99961     2.17551    0.01040     3.18552
      C    7    0.09678      0.99956     1.88781    0.01585     2.90322
      N    8   -0.24270      0.99966     2.72891    0.01413     3.74270
      C    9    0.03972      0.99957     1.94707    0.01364     2.96028
      C   10   -0.28179      0.99961     2.27501    0.00717     3.28179
      C   11   -0.29540      0.99962     2.28849    0.00730     3.29540
      C   12   -0.27772      0.99963     2.27180    0.00629     3.27772
      H   13    0.10277      0.00000     0.39600    0.00122     0.39723
      H   14    0.10112      0.00000     0.39741    0.00147     0.39888
      H   15    0.09931      0.00000     0.39953    0.00116     0.40069
      H   16    0.09943      0.00000     0.39878    0.00179     0.40057
      H   17    0.10249      0.00000     0.39554    0.00197     0.39751
      H   18    0.09333      0.00000     0.40527    0.00140     0.40667
      H   19    0.10127      0.00000     0.39741    0.00132     0.39873
      H   20    0.10080      0.00000     0.39787    0.00133     0.39920
      H   21    0.09522      0.00000     0.40304    0.00175     0.40478
      H   22    0.09688      0.00000     0.40155    0.00157     0.40312
      H   23    0.10180      0.00000     0.39694    0.00125     0.39820
      H   24    0.07584      0.00000     0.42215    0.00200     0.42416
      H   25    0.09959      0.00000     0.39931    0.00109     0.40041
      H   26    0.09958      0.00000     0.39941    0.00101     0.40042
      H   27    0.10275      0.00000     0.39630    0.00095     0.39725
      H   28    0.10000      0.00000     0.39887    0.00113     0.40000
      H   29    0.10154      0.00000     0.39738    0.00108     0.39846
      H   30    0.10396      0.00000     0.39421    0.00183     0.39604
      H   31    0.09960      0.00000     0.39939    0.00101     0.40040
      H   32    0.10168      0.00000     0.39712    0.00120     0.39832
      H   33    0.09460      0.00000     0.40449    0.00091     0.40540
 =======================================================================
   * Total *    0.00000     11.99529    34.85582    0.14889    47.00000

                                 Natural Population      
 --------------------------------------------------------
   Core                      11.99529 ( 99.9607% of  12)
   Valence                   34.85582 ( 99.5881% of  35)
   Natural Minimal Basis     46.85111 ( 99.6832% of  47)
   Natural Rydberg Basis      0.14889 (  0.3168% of  47)
 --------------------------------------------------------

    Atom  No          Natural Electron Configuration
 ----------------------------------------------------------------------------
      C    1      [core]2S( 0.54)2p( 1.74)
      C    2      [core]2S( 0.47)2p( 1.59)3p( 0.01)
      C    3      [core]2S( 0.51)2p( 1.67)
      C    4      [core]2S( 0.51)2p( 1.67)
      C    5      [core]2S( 0.51)2p( 1.67)
      C    6      [core]2S( 0.51)2p( 1.67)3p( 0.01)
      C    7      [core]2S( 0.45)2p( 1.44)3p( 0.01)
      N    8      [core]2S( 0.67)2p( 2.06)3p( 0.01)
      C    9      [core]2S( 0.45)2p( 1.50)3p( 0.01)
      C   10      [core]2S( 0.54)2p( 1.74)
      C   11      [core]2S( 0.54)2p( 1.75)
      C   12      [core]2S( 0.54)2p( 1.73)
      H   13            1S( 0.40)
      H   14            1S( 0.40)
      H   15            1S( 0.40)
      H   16            1S( 0.40)
      H   17            1S( 0.40)
      H   18            1S( 0.41)
      H   19            1S( 0.40)
      H   20            1S( 0.40)
      H   21            1S( 0.40)
      H   22            1S( 0.40)
      H   23            1S( 0.40)
      H   24            1S( 0.42)
      H   25            1S( 0.40)
      H   26            1S( 0.40)
      H   27            1S( 0.40)
      H   28            1S( 0.40)
      H   29            1S( 0.40)
      H   30            1S( 0.39)
      H   31            1S( 0.40)
      H   32            1S( 0.40)
      H   33            1S( 0.40)


 NBO analysis skipped by request.
 1\1\GINC-NODE100\SP\UB3LYP\6-311++G(d,p)\C11H21N1(1-,2)\VSC10255\09-De
 c-2020\0\\# B3LYP/6-311++G(d,p) empiricaldispersion=gd3bj scf=xqc pop=
 npa geom=check\\CID_11019239_JID_2316_Energie_anion\\-1,2\C,0,1.611759
 3689,-0.1302222313,-0.6060211672\C,0,0.3860499604,0.1152315552,0.30082
 52603\C,0,-0.8302725852,-0.7734214934,-0.1351922205\C,0,-1.9254595595,
 0.1847522996,-0.6549633666\C,0,-1.1609917977,1.4508731435,-1.060957930
 1\C,0,-0.1230003928,1.5712279804,0.056240379\C,0,0.8241377461,0.018426
 1118,1.7717233394\N,0,1.0307092093,-0.8920843367,2.6313234659\C,0,0.92
 26903271,-2.3553514732,2.5695473302\C,0,-0.4795990088,-2.7388990249,3.
 0785736426\C,0,1.2234774772,-3.0348783085,1.2229108338\C,0,1.964533263
 4,-2.8571780752,3.5922121263\H,0,1.9289915477,-1.1744788733,-0.5846638
 062\H,0,1.3718871122,0.1282435997,-1.6442804096\H,0,2.4599971614,0.489
 2839332,-0.2931872178\H,0,-0.5201066729,-1.458861506,-0.9314979077\H,0
 ,-1.2034213471,-1.3868456651,0.6850714902\H,0,-2.6235770629,0.42894088
 52,0.1557182506\H,0,-2.5141514895,-0.2515610203,-1.468544191\H,0,-1.80
 08782239,2.3351916258,-1.1486228703\H,0,-0.668697785,1.3048653307,-2.0
 311853241\H,0,-0.615486157,1.9459112683,0.9635760545\H,0,0.6986433042,
 2.2591022681,-0.172598965\H,0,1.027128071,1.0253556939,2.1679907895\H,
 0,-1.2615550394,-2.4507177863,2.3699263852\H,0,-0.5413952033,-3.821959
 6306,3.2327319785\H,0,-0.6827264448,-2.2396475898,4.0309344816\H,0,2.2
 248485879,-2.7631775559,0.8736730527\H,0,1.2034663891,-4.1231054563,1.
 3527160535\H,0,0.5018759112,-2.7842847355,0.4463232305\H,0,2.973658765
 1,-2.56657102,3.2804936593\H,0,1.774050047,-2.4127854662,4.5732081391\
 H,0,1.9308245209,-3.9491544472,3.6813654335\\Version=ES64L-G16RevA.03\
 State=2-A\HF=-486.7196842\S2=0.750036\S2-1=0.\S2A=0.75\RMSD=9.292e-09\
 Dipole=0.4804094,-0.1239172,1.0150969\Quadrupole=4.7451985,-2.9714372,
 -1.7737613,3.6069766,-6.2164473,10.0124967\PG=C01 [X(C11H21N1)]\\@


 AND THIS OUR LIFE, EXEMPT FROM PUBLIC HAUNT,
 FINDS TONGUES IN TREES, BOOKS IN THE RUNNING BROOKS,
 SERMONS IN STONES, AND GOOD IN EVERYTHING.
 I WOULD NOT CHANGE IT. -- W. SHAKESPEARE
 AS YOU LIKE IT, ACT II, SCENE 1.
 Job cpu time:       0 days  0 hours 57 minutes 21.2 seconds.
 Elapsed time:       0 days  0 hours 14 minutes 30.5 seconds.
 File lengths (MBytes):  RWF=    220 Int=      0 D2E=      0 Chk=     20 Scr=      8
 Normal termination of Gaussian 16 at Wed Dec  9 17:44:35 2020.
