 Entering Gaussian System, Link 0=g16
 Initial command:
 /apps/brussel/CO7/broadwell/software/Gaussian/G16.A.03-intel-2017b/g16/l1.exe "/scratch/brussel/102/vsc10255/3571707[9494].master01.hydra.brussel.vsc/Gau-8550.inp" -scrdir="/scratch/brussel/102/vsc10255/3571707[9494].master01.hydra.brussel.vsc/"
 Entering Link 1 = /apps/brussel/CO7/broadwell/software/Gaussian/G16.A.03-intel-2017b/g16/l1.exe.bin PID=      8556.
  
 Copyright (c) 1988,1990,1992,1993,1995,1998,2003,2009,2016,
            Gaussian, Inc.  All Rights Reserved.
  
 This is part of the Gaussian(R) 16 program.  It is based on
 the Gaussian(R) 09 system (copyright 2009, Gaussian, Inc.),
 the Gaussian(R) 03 system (copyright 2003, Gaussian, Inc.),
 the Gaussian(R) 98 system (copyright 1998, Gaussian, Inc.),
 the Gaussian(R) 94 system (copyright 1995, Gaussian, Inc.),
 the Gaussian 92(TM) system (copyright 1992, Gaussian, Inc.),
 the Gaussian 90(TM) system (copyright 1990, Gaussian, Inc.),
 the Gaussian 88(TM) system (copyright 1988, Gaussian, Inc.),
 the Gaussian 86(TM) system (copyright 1986, Carnegie Mellon
 University), and the Gaussian 82(TM) system (copyright 1983,
 Carnegie Mellon University). Gaussian is a federally registered
 trademark of Gaussian, Inc.
  
 This software contains proprietary and confidential information,
 including trade secrets, belonging to Gaussian, Inc.
  
 This software is provided under written license and may be
 used, copied, transmitted, or stored only in accord with that
 written license.
  
 The following legend is applicable only to US Government
 contracts under FAR:
  
                    RESTRICTED RIGHTS LEGEND
  
 Use, reproduction and disclosure by the US Government is
 subject to restrictions as set forth in subparagraphs (a)
 and (c) of the Commercial Computer Software - Restricted
 Rights clause in FAR 52.227-19.
  
 Gaussian, Inc.
 340 Quinnipiac St., Bldg. 40, Wallingford CT 06492
  
  
 ---------------------------------------------------------------
 Warning -- This program may not be used in any manner that
 competes with the business of Gaussian, Inc. or will provide
 assistance to any competitor of Gaussian, Inc.  The licensee
 of this program is prohibited from giving any competitor of
 Gaussian, Inc. access to this program.  By using this program,
 the user acknowledges that Gaussian, Inc. is engaged in the
 business of creating and licensing software in the field of
 computational chemistry and represents and warrants to the
 licensee that it is not a competitor of Gaussian, Inc. and that
 it will not use this program in any manner prohibited above.
 ---------------------------------------------------------------
  

 Cite this work as:
 Gaussian 16, Revision A.03,
 M. J. Frisch, G. W. Trucks, H. B. Schlegel, G. E. Scuseria, 
 M. A. Robb, J. R. Cheeseman, G. Scalmani, V. Barone, 
 G. A. Petersson, H. Nakatsuji, X. Li, M. Caricato, A. V. Marenich, 
 J. Bloino, B. G. Janesko, R. Gomperts, B. Mennucci, H. P. Hratchian, 
 J. V. Ortiz, A. F. Izmaylov, J. L. Sonnenberg, D. Williams-Young, 
 F. Ding, F. Lipparini, F. Egidi, J. Goings, B. Peng, A. Petrone, 
 T. Henderson, D. Ranasinghe, V. G. Zakrzewski, J. Gao, N. Rega, 
 G. Zheng, W. Liang, M. Hada, M. Ehara, K. Toyota, R. Fukuda, 
 J. Hasegawa, M. Ishida, T. Nakajima, Y. Honda, O. Kitao, H. Nakai, 
 T. Vreven, K. Throssell, J. A. Montgomery, Jr., J. E. Peralta, 
 F. Ogliaro, M. J. Bearpark, J. J. Heyd, E. N. Brothers, K. N. Kudin, 
 V. N. Staroverov, T. A. Keith, R. Kobayashi, J. Normand, 
 K. Raghavachari, A. P. Rendell, J. C. Burant, S. S. Iyengar, 
 J. Tomasi, M. Cossi, J. M. Millam, M. Klene, C. Adamo, R. Cammi, 
 J. W. Ochterski, R. L. Martin, K. Morokuma, O. Farkas, 
 J. B. Foresman, and D. J. Fox, Gaussian, Inc., Wallingford CT, 2016.
 
 ******************************************
 Gaussian 16:  ES64L-G16RevA.03 25-Dec-2016
                13-Dec-2020 
 ******************************************
 %chk=JID_9494.chk
 %mem=8GB
 %nprocshared=4
 Will use up to    4 processors via shared memory.
 -----------------------------------------------------------
 # opt freq B3LYP/6-31G(d) empiricaldispersion=gd3bj scf=xqc
 -----------------------------------------------------------
 1/18=20,19=15,26=3,38=1/1,3;
 2/9=110,12=2,17=6,18=5,40=1/2;
 3/5=1,6=6,7=1,11=2,25=1,30=1,71=1,74=-5,124=41/1,2,3;
 4//1;
 5/5=2,8=3,13=1,38=5/2,8;
 6/7=2,8=2,9=2,10=2,28=1/1;
 7//1,2,3,16;
 1/18=20,19=15,26=3/3(2);
 2/9=110/2;
 99//99;
 2/9=110/2;
 3/5=1,6=6,7=1,11=2,25=1,30=1,71=1,74=-5,124=41/1,2,3;
 4/5=5,16=3,69=1/1;
 5/5=2,8=3,13=1,38=5/2,8;
 7//1,2,3,16;
 1/18=20,19=15,26=3/3(-5);
 2/9=110/2;
 6/7=2,8=2,9=2,10=2,19=2,28=1/1;
 99/9=1/99;
 -------------------------------
 CID_102910383_JID_9494_neutraal
 -------------------------------
 Symbolic Z-matrix:
 Charge =  0 Multiplicity = 1
 C                     0.9844    0.08753  -0.04577 
 C                     0.33931   0.61056  -1.31791 
 C                     0.95015   0.00202  -2.52079 
 N                     0.64779  -1.11606  -3.14036 
 C                     1.54849  -1.12256  -4.17983 
 N                     2.40377  -0.08862  -4.18531 
 O                     1.99609   0.67074  -3.08735 
 C                     1.61611  -2.21749  -5.17576 
 N                     0.60157  -2.04846  -6.21008 
 C                    -0.59166  -2.72874  -6.23959 
 C                    -1.26145  -2.36342  -7.38352 
 C                    -0.44985  -1.42958  -8.08181 
 C                     0.71589  -1.24493  -7.33077 
 C                     1.73608  -0.37092  -7.74297 
 C                     1.56226   0.32539  -8.94351 
 C                     0.40689   0.14919  -9.70474 
 C                    -0.60718  -0.72324  -9.28997 
 C                     0.25704   0.90153  -10.96692 
 O                    -0.72751   0.78726  -11.68634 
 H                     0.87151  -0.99894   0.03766 
 H                     0.51914   0.54601   0.83253 
 H                     2.05555   0.31584  -0.02185 
 H                    -0.73294   0.38567  -1.30306 
 H                     0.43757   1.70123  -1.35861 
 H                     2.59276  -2.26575  -5.66945 
 H                     1.4451   -3.18595  -4.69241 
 H                    -0.8705   -3.40945  -5.44511 
 H                    -2.23435  -2.72697  -7.6881 
 H                     2.63353  -0.22184  -7.14945 
 H                     2.34335   1.00863  -9.26874 
 H                    -1.50509  -0.85247  -9.88889 
 H                     1.08446   1.57946  -11.23559 
 

 GradGradGradGradGradGradGradGradGradGradGradGradGradGradGradGradGradGrad
 Berny optimization.
 Initialization pass.
                           ----------------------------
                           !    Initial Parameters    !
                           ! (Angstroms and Degrees)  !
 --------------------------                            --------------------------
 ! Name  Definition              Value          Derivative Info.                !
 --------------------------------------------------------------------------------
 ! R1    R(1,2)                  1.5192         estimate D2E/DX2                !
 ! R2    R(1,20)                 1.0955         estimate D2E/DX2                !
 ! R3    R(1,21)                 1.0946         estimate D2E/DX2                !
 ! R4    R(1,22)                 1.0955         estimate D2E/DX2                !
 ! R5    R(2,3)                  1.48           estimate D2E/DX2                !
 ! R6    R(2,23)                 1.0957         estimate D2E/DX2                !
 ! R7    R(2,24)                 1.0958         estimate D2E/DX2                !
 ! R8    R(3,4)                  1.3135         estimate D2E/DX2                !
 ! R9    R(3,7)                  1.3646         estimate D2E/DX2                !
 ! R10   R(4,5)                  1.3754         estimate D2E/DX2                !
 ! R11   R(5,6)                  1.3419         estimate D2E/DX2                !
 ! R12   R(5,8)                  1.4817         estimate D2E/DX2                !
 ! R13   R(6,7)                  1.3958         estimate D2E/DX2                !
 ! R14   R(8,9)                  1.4587         estimate D2E/DX2                !
 ! R15   R(8,25)                 1.0954         estimate D2E/DX2                !
 ! R16   R(8,26)                 1.0958         estimate D2E/DX2                !
 ! R17   R(9,10)                 1.3738         estimate D2E/DX2                !
 ! R18   R(9,13)                 1.3837         estimate D2E/DX2                !
 ! R19   R(10,11)                1.375          estimate D2E/DX2                !
 ! R20   R(10,27)                1.0827         estimate D2E/DX2                !
 ! R21   R(11,12)                1.4207         estimate D2E/DX2                !
 ! R22   R(11,28)                1.0823         estimate D2E/DX2                !
 ! R23   R(12,13)                1.399          estimate D2E/DX2                !
 ! R24   R(12,17)                1.4083         estimate D2E/DX2                !
 ! R25   R(13,14)                1.4052         estimate D2E/DX2                !
 ! R26   R(14,15)                1.3987         estimate D2E/DX2                !
 ! R27   R(14,29)                1.0862         estimate D2E/DX2                !
 ! R28   R(15,16)                1.3948         estimate D2E/DX2                !
 ! R29   R(15,30)                1.0875         estimate D2E/DX2                !
 ! R30   R(16,17)                1.4005         estimate D2E/DX2                !
 ! R31   R(16,18)                1.477          estimate D2E/DX2                !
 ! R32   R(17,31)                1.087          estimate D2E/DX2                !
 ! R33   R(18,19)                1.2247         estimate D2E/DX2                !
 ! R34   R(18,32)                1.1029         estimate D2E/DX2                !
 ! A1    A(2,1,20)             111.1893         estimate D2E/DX2                !
 ! A2    A(2,1,21)             110.3172         estimate D2E/DX2                !
 ! A3    A(2,1,22)             111.2061         estimate D2E/DX2                !
 ! A4    A(20,1,21)            108.0896         estimate D2E/DX2                !
 ! A5    A(20,1,22)            107.8058         estimate D2E/DX2                !
 ! A6    A(21,1,22)            108.1078         estimate D2E/DX2                !
 ! A7    A(1,2,3)              111.3316         estimate D2E/DX2                !
 ! A8    A(1,2,23)             109.4829         estimate D2E/DX2                !
 ! A9    A(1,2,24)             109.6136         estimate D2E/DX2                !
 ! A10   A(3,2,23)             109.3008         estimate D2E/DX2                !
 ! A11   A(3,2,24)             110.0014         estimate D2E/DX2                !
 ! A12   A(23,2,24)            107.0098         estimate D2E/DX2                !
 ! A13   A(2,3,4)              129.669          estimate D2E/DX2                !
 ! A14   A(2,3,7)              116.8911         estimate D2E/DX2                !
 ! A15   A(4,3,7)              113.4359         estimate D2E/DX2                !
 ! A16   A(3,4,5)              102.1079         estimate D2E/DX2                !
 ! A17   A(4,5,6)              114.6352         estimate D2E/DX2                !
 ! A18   A(4,5,8)              122.7768         estimate D2E/DX2                !
 ! A19   A(6,5,8)              122.519          estimate D2E/DX2                !
 ! A20   A(5,6,7)              103.2859         estimate D2E/DX2                !
 ! A21   A(3,7,6)              106.4901         estimate D2E/DX2                !
 ! A22   A(5,8,9)              111.0543         estimate D2E/DX2                !
 ! A23   A(5,8,25)             112.0979         estimate D2E/DX2                !
 ! A24   A(5,8,26)             110.4566         estimate D2E/DX2                !
 ! A25   A(9,8,25)             107.7974         estimate D2E/DX2                !
 ! A26   A(9,8,26)             107.8571         estimate D2E/DX2                !
 ! A27   A(25,8,26)            107.3976         estimate D2E/DX2                !
 ! A28   A(8,9,10)             124.1902         estimate D2E/DX2                !
 ! A29   A(8,9,13)             125.7416         estimate D2E/DX2                !
 ! A30   A(10,9,13)            109.9929         estimate D2E/DX2                !
 ! A31   A(9,10,11)            108.0224         estimate D2E/DX2                !
 ! A32   A(9,10,27)            121.2801         estimate D2E/DX2                !
 ! A33   A(11,10,27)           130.6957         estimate D2E/DX2                !
 ! A34   A(10,11,12)           107.7747         estimate D2E/DX2                !
 ! A35   A(10,11,28)           125.643          estimate D2E/DX2                !
 ! A36   A(12,11,28)           126.5822         estimate D2E/DX2                !
 ! A37   A(11,12,13)           107.3928         estimate D2E/DX2                !
 ! A38   A(11,12,17)           133.4341         estimate D2E/DX2                !
 ! A39   A(13,12,17)           119.173          estimate D2E/DX2                !
 ! A40   A(9,13,12)            106.8168         estimate D2E/DX2                !
 ! A41   A(9,13,14)            131.2044         estimate D2E/DX2                !
 ! A42   A(12,13,14)           121.9778         estimate D2E/DX2                !
 ! A43   A(13,14,15)           118.112          estimate D2E/DX2                !
 ! A44   A(13,14,29)           121.6625         estimate D2E/DX2                !
 ! A45   A(15,14,29)           120.2213         estimate D2E/DX2                !
 ! A46   A(14,15,16)           120.5642         estimate D2E/DX2                !
 ! A47   A(14,15,30)           118.6982         estimate D2E/DX2                !
 ! A48   A(16,15,30)           120.7372         estimate D2E/DX2                !
 ! A49   A(15,16,17)           121.1205         estimate D2E/DX2                !
 ! A50   A(15,16,18)           119.0834         estimate D2E/DX2                !
 ! A51   A(17,16,18)           119.7959         estimate D2E/DX2                !
 ! A52   A(12,17,16)           119.0521         estimate D2E/DX2                !
 ! A53   A(12,17,31)           120.3524         estimate D2E/DX2                !
 ! A54   A(16,17,31)           120.5952         estimate D2E/DX2                !
 ! A55   A(16,18,19)           122.4121         estimate D2E/DX2                !
 ! A56   A(16,18,32)           116.4331         estimate D2E/DX2                !
 ! A57   A(19,18,32)           121.1548         estimate D2E/DX2                !
 ! D1    D(20,1,2,3)           -59.9553         estimate D2E/DX2                !
 ! D2    D(20,1,2,23)           61.0119         estimate D2E/DX2                !
 ! D3    D(20,1,2,24)          178.1081         estimate D2E/DX2                !
 ! D4    D(21,1,2,3)          -179.8657         estimate D2E/DX2                !
 ! D5    D(21,1,2,23)          -58.8985         estimate D2E/DX2                !
 ! D6    D(21,1,2,24)           58.1978         estimate D2E/DX2                !
 ! D7    D(22,1,2,3)            60.1901         estimate D2E/DX2                !
 ! D8    D(22,1,2,23)         -178.8426         estimate D2E/DX2                !
 ! D9    D(22,1,2,24)          -61.7464         estimate D2E/DX2                !
 ! D10   D(1,2,3,4)             87.3983         estimate D2E/DX2                !
 ! D11   D(1,2,3,7)            -91.8195         estimate D2E/DX2                !
 ! D12   D(23,2,3,4)           -33.6755         estimate D2E/DX2                !
 ! D13   D(23,2,3,7)           147.1067         estimate D2E/DX2                !
 ! D14   D(24,2,3,4)          -150.8902         estimate D2E/DX2                !
 ! D15   D(24,2,3,7)            29.892          estimate D2E/DX2                !
 ! D16   D(2,3,4,5)            179.2999         estimate D2E/DX2                !
 ! D17   D(7,3,4,5)             -1.4604         estimate D2E/DX2                !
 ! D18   D(2,3,7,6)            179.6736         estimate D2E/DX2                !
 ! D19   D(4,3,7,6)              0.3298         estimate D2E/DX2                !
 ! D20   D(3,4,5,6)              2.2102         estimate D2E/DX2                !
 ! D21   D(3,4,5,8)            179.2565         estimate D2E/DX2                !
 ! D22   D(4,5,6,7)             -2.0348         estimate D2E/DX2                !
 ! D23   D(8,5,6,7)           -179.0896         estimate D2E/DX2                !
 ! D24   D(4,5,8,9)             81.6008         estimate D2E/DX2                !
 ! D25   D(4,5,8,25)          -157.75           estimate D2E/DX2                !
 ! D26   D(4,5,8,26)           -38.0223         estimate D2E/DX2                !
 ! D27   D(6,5,8,9)           -101.5835         estimate D2E/DX2                !
 ! D28   D(6,5,8,25)            19.0657         estimate D2E/DX2                !
 ! D29   D(6,5,8,26)           138.7935         estimate D2E/DX2                !
 ! D30   D(5,6,7,3)              0.9975         estimate D2E/DX2                !
 ! D31   D(5,8,9,10)          -100.3614         estimate D2E/DX2                !
 ! D32   D(5,8,9,13)            83.1142         estimate D2E/DX2                !
 ! D33   D(25,8,9,10)          136.4814         estimate D2E/DX2                !
 ! D34   D(25,8,9,13)          -40.0429         estimate D2E/DX2                !
 ! D35   D(26,8,9,10)           20.8015         estimate D2E/DX2                !
 ! D36   D(26,8,9,13)         -155.7228         estimate D2E/DX2                !
 ! D37   D(8,9,10,11)         -177.2055         estimate D2E/DX2                !
 ! D38   D(8,9,10,27)            3.2297         estimate D2E/DX2                !
 ! D39   D(13,9,10,11)          -0.207          estimate D2E/DX2                !
 ! D40   D(13,9,10,27)        -179.7718         estimate D2E/DX2                !
 ! D41   D(8,9,13,12)          177.1123         estimate D2E/DX2                !
 ! D42   D(8,9,13,14)           -3.2587         estimate D2E/DX2                !
 ! D43   D(10,9,13,12)           0.1713         estimate D2E/DX2                !
 ! D44   D(10,9,13,14)         179.8002         estimate D2E/DX2                !
 ! D45   D(9,10,11,12)           0.1577         estimate D2E/DX2                !
 ! D46   D(9,10,11,28)        -179.7464         estimate D2E/DX2                !
 ! D47   D(27,10,11,12)        179.6671         estimate D2E/DX2                !
 ! D48   D(27,10,11,28)         -0.237          estimate D2E/DX2                !
 ! D49   D(10,11,12,13)         -0.0533         estimate D2E/DX2                !
 ! D50   D(10,11,12,17)       -179.9945         estimate D2E/DX2                !
 ! D51   D(28,11,12,13)        179.8496         estimate D2E/DX2                !
 ! D52   D(28,11,12,17)         -0.0916         estimate D2E/DX2                !
 ! D53   D(11,12,13,9)          -0.0705         estimate D2E/DX2                !
 ! D54   D(11,12,13,14)       -179.7414         estimate D2E/DX2                !
 ! D55   D(17,12,13,9)         179.8807         estimate D2E/DX2                !
 ! D56   D(17,12,13,14)          0.2098         estimate D2E/DX2                !
 ! D57   D(11,12,17,16)        179.7211         estimate D2E/DX2                !
 ! D58   D(11,12,17,31)         -0.0873         estimate D2E/DX2                !
 ! D59   D(13,12,17,16)         -0.2146         estimate D2E/DX2                !
 ! D60   D(13,12,17,31)        179.977          estimate D2E/DX2                !
 ! D61   D(9,13,14,15)        -179.6259         estimate D2E/DX2                !
 ! D62   D(9,13,14,29)          -0.3753         estimate D2E/DX2                !
 ! D63   D(12,13,14,15)         -0.0447         estimate D2E/DX2                !
 ! D64   D(12,13,14,29)        179.206          estimate D2E/DX2                !
 ! D65   D(13,14,15,16)         -0.1137         estimate D2E/DX2                !
 ! D66   D(13,14,15,30)        179.6559         estimate D2E/DX2                !
 ! D67   D(29,14,15,16)       -179.3756         estimate D2E/DX2                !
 ! D68   D(29,14,15,30)          0.3941         estimate D2E/DX2                !
 ! D69   D(14,15,16,17)          0.1059         estimate D2E/DX2                !
 ! D70   D(14,15,16,18)        179.9722         estimate D2E/DX2                !
 ! D71   D(30,15,16,17)       -179.659          estimate D2E/DX2                !
 ! D72   D(30,15,16,18)          0.2073         estimate D2E/DX2                !
 ! D73   D(15,16,17,12)          0.0613         estimate D2E/DX2                !
 ! D74   D(15,16,17,31)        179.8693         estimate D2E/DX2                !
 ! D75   D(18,16,17,12)       -179.804          estimate D2E/DX2                !
 ! D76   D(18,16,17,31)          0.0039         estimate D2E/DX2                !
 ! D77   D(15,16,18,19)        179.5344         estimate D2E/DX2                !
 ! D78   D(15,16,18,32)         -0.4116         estimate D2E/DX2                !
 ! D79   D(17,16,18,19)         -0.5974         estimate D2E/DX2                !
 ! D80   D(17,16,18,32)        179.4566         estimate D2E/DX2                !
 --------------------------------------------------------------------------------
 Trust Radius=3.00D-01 FncErr=1.00D-07 GrdErr=1.00D-06 EigMax=2.50D+02 EigMin=1.00D-04
 Number of steps in this run=    181 maximum allowed number of steps=    192.
 GradGradGradGradGradGradGradGradGradGradGradGradGradGradGradGradGradGrad

                          Input orientation:                          
 ---------------------------------------------------------------------
 Center     Atomic      Atomic             Coordinates (Angstroms)
 Number     Number       Type             X           Y           Z
 ---------------------------------------------------------------------
      1          6           0        0.984400    0.087530   -0.045770
      2          6           0        0.339310    0.610560   -1.317910
      3          6           0        0.950150    0.002020   -2.520790
      4          7           0        0.647790   -1.116060   -3.140360
      5          6           0        1.548490   -1.122560   -4.179830
      6          7           0        2.403770   -0.088620   -4.185310
      7          8           0        1.996090    0.670740   -3.087350
      8          6           0        1.616110   -2.217490   -5.175760
      9          7           0        0.601570   -2.048460   -6.210080
     10          6           0       -0.591660   -2.728740   -6.239590
     11          6           0       -1.261450   -2.363420   -7.383520
     12          6           0       -0.449850   -1.429580   -8.081810
     13          6           0        0.715890   -1.244930   -7.330770
     14          6           0        1.736080   -0.370920   -7.742970
     15          6           0        1.562260    0.325390   -8.943510
     16          6           0        0.406890    0.149190   -9.704740
     17          6           0       -0.607180   -0.723240   -9.289970
     18          6           0        0.257040    0.901530  -10.966920
     19          8           0       -0.727510    0.787260  -11.686340
     20          1           0        0.871510   -0.998940    0.037660
     21          1           0        0.519140    0.546010    0.832530
     22          1           0        2.055550    0.315840   -0.021850
     23          1           0       -0.732940    0.385670   -1.303060
     24          1           0        0.437570    1.701230   -1.358610
     25          1           0        2.592760   -2.265750   -5.669450
     26          1           0        1.445100   -3.185950   -4.692410
     27          1           0       -0.870500   -3.409450   -5.445110
     28          1           0       -2.234350   -2.726970   -7.688100
     29          1           0        2.633530   -0.221840   -7.149450
     30          1           0        2.343350    1.008630   -9.268740
     31          1           0       -1.505090   -0.852470   -9.888890
     32          1           0        1.084460    1.579460  -11.235590
 ---------------------------------------------------------------------
                    Distance matrix (angstroms):
                    1          2          3          4          5
     1  C    0.000000
     2  C    1.519224   0.000000
     3  C    2.476734   1.479989   0.000000
     4  N    3.337428   2.529368   1.313542   0.000000
     5  C    4.344303   3.557584   2.091675   1.375427   0.000000
     6  N    4.379661   3.601782   2.211753   2.287142   1.341852
     7  O    3.258045   2.424760   1.364612   2.239057   2.147041
     8  C    5.659414   4.950868   3.524002   2.508714   1.481661
     9  N    6.535115   5.574271   4.235190   3.208533   2.424018
    10  C    6.984178   6.020014   4.864535   3.707047   3.376784
    11  C    8.055655   6.942522   5.842313   4.817210   4.438370
    12  C    8.302809   7.108818   5.910535   5.071591   4.394664
    13  C    7.410720   6.303899   4.974502   4.192944   3.261383
    14  C    7.747392   6.647982   5.294141   4.787863   3.646384
    15  C    8.919657   7.728305   6.459921   6.049015   4.978895
    16  C    9.676416   8.399783   7.205965   6.689542   5.783185
    17  C    9.415185   8.138096   6.983772   6.288637   5.560567
    18  C   10.975571   9.653747   8.522126   8.091872   7.199262
    19  O   11.786566  10.424666   9.350853   8.862723   8.073121
    20  H    1.095501   2.170552   2.748413   3.188037   4.273266
    21  H    1.094569   2.158911   3.424390   4.308466   5.382141
    22  H    1.095472   2.170740   2.750471   3.709074   4.428871
    23  H    2.149168   1.095681   2.112545   2.745411   3.969318
    24  H    2.150953   1.095843   2.121489   3.340052   4.143334
    25  H    6.304802   5.682174   4.213669   3.391311   2.148570
    26  H    5.702559   5.198414   3.888967   2.707214   2.128616
    27  H    6.694953   5.887096   4.848148   3.588414   3.561223
    28  H    8.757110   7.638204   6.655037   5.619938   5.402959
    29  H    7.299151   6.321645   4.930352   4.562411   3.287438
    30  H    9.367942   8.209162   6.963411   6.704198   5.574117
    31  H   10.196478   8.888418   7.813274   7.088514   6.480020
    32  H   11.289284   9.992717   8.857432   8.543375   7.569675
                    6          7          8          9         10
     6  N    0.000000
     7  O    1.395832   0.000000
     8  C    2.476588   3.584371   0.000000
     9  N    3.344935   4.369231   1.458657   0.000000
    10  C    4.490312   5.309381   2.503469   1.373845   0.000000
    11  C    5.370019   6.186661   3.629856   2.224186   1.375010
    12  C    5.012388   5.944628   3.651591   2.234249   2.258695
    13  C    3.752321   4.828594   2.529889   1.383718   2.258772
    14  C    3.630764   4.777809   3.164614   2.539883   3.638384
    15  C    4.849743   5.882354   4.545886   3.745628   4.612837
    16  C    5.874367   6.825498   5.251195   4.132822   4.613767
    17  C    5.960379   6.869694   4.909432   3.564128   3.650629
    18  C    7.181858   8.072495   6.716613   5.607911   6.020532
    19  O    8.175422   9.020765   7.543787   6.308501   6.484427
    20  H    4.583664   3.717284   5.405464   6.341026   6.673600
    21  H    5.397528   4.190751   6.703717   7.505759   7.872277
    22  H    4.197528   3.086548   5.759658   6.782195   7.411982
    23  H    4.286171   3.273005   5.224202   5.637797   5.838565
    24  H    3.880688   2.545474   5.596066   6.133827   6.671425
    25  H    2.641644   3.955531   1.095401   2.074689   3.268019
    26  H    3.281715   4.213534   1.095804   2.075753   2.598307
    27  H    4.830720   5.515825   2.770658   2.145801   1.082736
    28  H    6.382992   7.113927   4.625739   3.269153   2.190118
    29  H    2.976015   4.207575   2.985501   2.889259   4.185002
    30  H    5.200853   6.200350   5.262054   4.662081   5.635421
    31  H    6.956542   7.799960   5.815390   4.404776   4.203824
    32  H    7.364069   8.249282   7.170845   6.216972   6.806613
                   11         12         13         14         15
    11  C    0.000000
    12  C    1.420690   0.000000
    13  C    2.272372   1.398966   0.000000
    14  C    3.617243   2.452318   1.405201   0.000000
    15  C    4.199596   2.805536   2.404824   1.398698   0.000000
    16  C    3.805868   2.420830   2.770340   2.426067   1.394775
    17  C    2.598617   1.408304   2.420979   2.829877   2.434364
    18  C    5.080006   3.775927   4.247284   3.768361   2.475828
    19  O    5.359677   4.240768   5.018385   4.791745   3.602706
    20  H    7.841252   8.237550   7.374177   7.853668   9.104526
    21  H    8.895997   9.181904   8.359763   8.709817   9.834009
    22  H    8.507356   8.618960   7.592826   7.758182   8.935292
    23  H    6.693938   7.023299   6.410246   6.938366   7.977973
    24  H    7.463752   7.469331   6.665134   6.836665   7.790287
    25  H    4.219302   3.971919   2.706418   2.936625   4.300629
    26  H    3.904362   4.261890   3.355630   4.161127   5.514987
    27  H    2.237064   3.324006   3.279862   4.615960   5.666229
    28  H    1.082346   2.241131   3.320850   4.617174   5.030627
    29  H    4.451070   3.440227   2.181039   1.086235   2.160030
    30  H    5.283877   3.893024   3.388641   2.144740   1.087517
    31  H    2.935849   2.170743   3.410389   3.916892   3.419025
    32  H    5.990663   4.621121   4.833285   4.053022   2.656053
                   16         17         18         19         20
    16  C    0.000000
    17  C    1.400538   0.000000
    18  C    1.477013   2.489762   0.000000
    19  O    2.370809   2.835256   1.224729   0.000000
    20  H    9.820816   9.448133  11.184370  11.966601   0.000000
    21  H   10.545337  10.263752  11.807714  12.583102   1.772809
    22  H    9.823656   9.698859  11.107305  12.001166   1.770350
    23  H    8.481943   8.064504   9.728122  10.391045   2.507775
    24  H    8.489267   8.359188   9.643222  10.433348   3.070634
    25  H    5.185897   5.072191   6.599276   7.519842   6.094146
    26  H    6.109377   5.604851   7.582114   8.331968   5.242669
    27  H    5.695620   4.697660   7.095511   7.522352   6.237461
    28  H    4.394915   3.037862   5.488506   5.532296   8.504106
    29  H    3.409559   3.916048   4.634948   5.735699   7.440642
    30  H    2.163010   3.421323   2.692206   3.914585   9.633573
    31  H    2.166311   1.087036   2.709939   2.554246  10.208138
    32  H    2.201880   3.456806   1.102904   2.028298  11.566316
                   21         22         23         24         25
    21  H    0.000000
    22  H    1.772992   0.000000
    23  H    2.480758   3.069536   0.000000
    24  H    2.478363   2.514775   1.761782   0.000000
    25  H    7.381168   6.232863   6.095545   6.242204   0.000000
    26  H    6.731262   5.869354   5.384052   6.001156   1.765927
    27  H    7.548876   7.200785   5.619469   6.673049   3.654114
    28  H    9.533900   9.296952   7.260268   8.173772   5.252491
    29  H    8.292903   7.171181   6.773660   6.484926   2.523813
    30  H   10.275087   9.277271   8.561758   8.165895   4.872233
    31  H   11.000095  10.554695   8.708943   9.113780   6.049249
    32  H   12.125474  11.326417  10.167754   9.898890   6.931271
                   26         27         28         29         30
    26  H    0.000000
    27  H    2.445100   0.000000
    28  H    4.766883   2.712355   0.000000
    29  H    4.029313   5.034268   5.501098   0.000000
    30  H    6.272492   6.668464   6.116246   2.467722   0.000000
    31  H    6.414994   5.166046   2.981450   5.003039   4.319580
    32  H    8.102617   7.889281   6.491881   4.726610   2.403986
                   31         32
    31  H    0.000000
    32  H    3.799165   0.000000
 Stoichiometry    C14H13N3O2
 Framework group  C1[X(C14H13N3O2)]
 Deg. of freedom    90
 Full point group                 C1      NOp   1
 Largest Abelian subgroup         C1      NOp   1
 Largest concise Abelian subgroup C1      NOp   1
                         Standard orientation:                         
 ---------------------------------------------------------------------
 Center     Atomic      Atomic             Coordinates (Angstroms)
 Number     Number       Type             X           Y           Z
 ---------------------------------------------------------------------
      1          6           0        5.977640   -0.387680   -0.789773
      2          6           0        4.625054   -0.619841   -1.441428
      3          6           0        3.522544   -0.449200   -0.468947
      4          7           0        2.873168    0.637912   -0.119818
      5          6           0        1.969498    0.152448    0.796428
      6          7           0        2.077513   -1.161475    1.046441
      7          8           0        3.103609   -1.567373    0.191620
      8          6           0        0.998904    1.020594    1.503245
      9          7           0       -0.167712    1.289186    0.669851
     10          6           0       -0.359487    2.450521   -0.038650
     11          6           0       -1.587674    2.376509   -0.652435
     12          6           0       -2.171218    1.128425   -0.305848
     13          6           0       -1.266017    0.460012    0.525381
     14          6           0       -1.536848   -0.816734    1.046113
     15          6           0       -2.753796   -1.420073    0.712383
     16          6           0       -3.667689   -0.764628   -0.112595
     17          6           0       -3.393468    0.507987   -0.629083
     18          6           0       -4.942647   -1.432351   -0.444556
     19          8           0       -5.791668   -0.909694   -1.155861
     20          1           0        6.050626    0.625268   -0.379005
     21          1           0        6.779890   -0.515577   -1.523338
     22          1           0        6.149401   -1.094509    0.029343
     23          1           0        4.491511    0.086900   -2.267987
     24          1           0        4.592316   -1.626904   -1.872270
     25          1           0        0.646499    0.569514    2.437184
     26          1           0        1.459129    1.982142    1.757027
     27          1           0        0.392168    3.229661   -0.055100
     28          1           0       -2.022887    3.138214   -1.286365
     29          1           0       -0.824835   -1.336451    1.680809
     30          1           0       -2.970774   -2.410544    1.105551
     31          1           0       -4.111004    1.010154   -1.272992
     32          1           0       -5.097128   -2.436626   -0.015648
 ---------------------------------------------------------------------
 Rotational constants (GHZ):           0.8903819           0.1696735           0.1583250
 Standard basis: 6-31G(d) (6D, 7F)
 There are   311 symmetry adapted cartesian basis functions of A   symmetry.
 There are   311 symmetry adapted basis functions of A   symmetry.
   311 basis functions,   584 primitive gaussians,   311 cartesian basis functions
    67 alpha electrons       67 beta electrons
       nuclear repulsion energy      1317.4825986091 Hartrees.
 NAtoms=   32 NActive=   32 NUniq=   32 SFac= 1.00D+00 NAtFMM=   60 NAOKFM=F Big=F
 Integral buffers will be    131072 words long.
 Raffenetti 2 integral format.
 Two-electron integral symmetry is turned on.
 Nuclear repulsion after empirical dispersion term =     1317.4183015839 Hartrees.
 One-electron integrals computed using PRISM.
 NBasis=   311 RedAO= T EigKep=  3.48D-04  NBF=   311
 NBsUse=   311 1.00D-06 EigRej= -1.00D+00 NBFU=   311
 ExpMin= 1.61D-01 ExpMax= 5.48D+03 ExpMxC= 8.25D+02 IAcc=3 IRadAn=         5 AccDes= 0.00D+00
 Harris functional with IExCor=  402 and IRadAn=       5 diagonalized for initial guess.
 HarFok:  IExCor=  402 AccDes= 0.00D+00 IRadAn=         5 IDoV= 1 UseB2=F ITyADJ=14
 ICtDFT=  3500011 ScaDFX=  1.000000  1.000000  1.000000  1.000000
 FoFCou: FMM=F IPFlag=           0 FMFlag=      100000 FMFlg1=           0
         NFxFlg=           0 DoJE=T BraDBF=F KetDBF=T FulRan=T
         wScrn=  0.000000 ICntrl=       500 IOpCl=  0 I1Cent=   200000004 NGrid=           0
         NMat0=    1 NMatS0=      1 NMatT0=    0 NMatD0=    1 NMtDS0=    0 NMtDT0=    0
 Petite list used in FoFCou.
 Requested convergence on RMS density matrix=1.00D-08 within  32 cycles.
 Requested convergence on MAX density matrix=1.00D-06.
 Requested convergence on             energy=1.00D-06.
 No special actions if energy rises.
 Integral accuracy reduced to 1.0D-05 until final iterations.
 Initial convergence to 1.0D-05 achieved.  Increase integral accuracy.
 SCF Done:  E(RB3LYP) =  -856.046968143     A.U. after   15 cycles
            NFock= 15  Conv=0.60D-08     -V/T= 2.0094
 QCSCF skips out because SCF is already converged.

 **********************************************************************

            Population analysis using the SCF density.

 **********************************************************************

 Orbital symmetries:
       Occupied  (A) (A) (A) (A) (A) (A) (A) (A) (A) (A) (A) (A)
                 (A) (A) (A) (A) (A) (A) (A) (A) (A) (A) (A) (A)
                 (A) (A) (A) (A) (A) (A) (A) (A) (A) (A) (A) (A)
                 (A) (A) (A) (A) (A) (A) (A) (A) (A) (A) (A) (A)
                 (A) (A) (A) (A) (A) (A) (A) (A) (A) (A) (A) (A)
                 (A) (A) (A) (A) (A) (A) (A)
       Virtual   (A) (A) (A) (A) (A) (A) (A) (A) (A) (A) (A) (A)
                 (A) (A) (A) (A) (A) (A) (A) (A) (A) (A) (A) (A)
                 (A) (A) (A) (A) (A) (A) (A) (A) (A) (A) (A) (A)
                 (A) (A) (A) (A) (A) (A) (A) (A) (A) (A) (A) (A)
                 (A) (A) (A) (A) (A) (A) (A) (A) (A) (A) (A) (A)
                 (A) (A) (A) (A) (A) (A) (A) (A) (A) (A) (A) (A)
                 (A) (A) (A) (A) (A) (A) (A) (A) (A) (A) (A) (A)
                 (A) (A) (A) (A) (A) (A) (A) (A) (A) (A) (A) (A)
                 (A) (A) (A) (A) (A) (A) (A) (A) (A) (A) (A) (A)
                 (A) (A) (A) (A) (A) (A) (A) (A) (A) (A) (A) (A)
                 (A) (A) (A) (A) (A) (A) (A) (A) (A) (A) (A) (A)
                 (A) (A) (A) (A) (A) (A) (A) (A) (A) (A) (A) (A)
                 (A) (A) (A) (A) (A) (A) (A) (A) (A) (A) (A) (A)
                 (A) (A) (A) (A) (A) (A) (A) (A) (A) (A) (A) (A)
                 (A) (A) (A) (A) (A) (A) (A) (A) (A) (A) (A) (A)
                 (A) (A) (A) (A) (A) (A) (A) (A) (A) (A) (A) (A)
                 (A) (A) (A) (A) (A) (A) (A) (A) (A) (A) (A) (A)
                 (A) (A) (A) (A) (A) (A) (A) (A) (A) (A) (A) (A)
                 (A) (A) (A) (A) (A) (A) (A) (A) (A) (A) (A) (A)
                 (A) (A) (A) (A) (A) (A) (A) (A) (A) (A) (A) (A)
                 (A) (A) (A) (A)
 The electronic state is 1-A.
 Alpha  occ. eigenvalues --  -19.26259 -19.12718 -14.40482 -14.39455 -14.35926
 Alpha  occ. eigenvalues --  -10.31068 -10.27545 -10.26113 -10.25903 -10.22595
 Alpha  occ. eigenvalues --  -10.22562 -10.22558 -10.20362 -10.19621 -10.19370
 Alpha  occ. eigenvalues --  -10.19309 -10.18825 -10.18663 -10.17941  -1.17297
 Alpha  occ. eigenvalues --   -1.01944  -1.00381  -0.95340  -0.88778  -0.85426
 Alpha  occ. eigenvalues --   -0.81506  -0.79755  -0.76121  -0.74110  -0.71206
 Alpha  occ. eigenvalues --   -0.68009  -0.65520  -0.62936  -0.61097  -0.60316
 Alpha  occ. eigenvalues --   -0.57977  -0.56288  -0.53648  -0.52347  -0.50485
 Alpha  occ. eigenvalues --   -0.50021  -0.47651  -0.47178  -0.46496  -0.45588
 Alpha  occ. eigenvalues --   -0.44961  -0.44070  -0.42738  -0.41686  -0.41060
 Alpha  occ. eigenvalues --   -0.40838  -0.40250  -0.39973  -0.38924  -0.38122
 Alpha  occ. eigenvalues --   -0.37663  -0.37417  -0.35036  -0.34611  -0.33966
 Alpha  occ. eigenvalues --   -0.32607  -0.31284  -0.29249  -0.27776  -0.24005
 Alpha  occ. eigenvalues --   -0.23429  -0.20734
 Alpha virt. eigenvalues --   -0.04471  -0.04235  -0.01263   0.01207   0.05783
 Alpha virt. eigenvalues --    0.07241   0.07508   0.09297   0.10354   0.11454
 Alpha virt. eigenvalues --    0.11949   0.12253   0.13297   0.13682   0.14251
 Alpha virt. eigenvalues --    0.15059   0.15722   0.16098   0.17425   0.18371
 Alpha virt. eigenvalues --    0.18463   0.18832   0.19586   0.21972   0.23462
 Alpha virt. eigenvalues --    0.23641   0.23811   0.25535   0.26764   0.28336
 Alpha virt. eigenvalues --    0.29673   0.30671   0.33783   0.34344   0.35859
 Alpha virt. eigenvalues --    0.38557   0.40622   0.42869   0.45779   0.47292
 Alpha virt. eigenvalues --    0.48248   0.49744   0.49884   0.50418   0.51189
 Alpha virt. eigenvalues --    0.52401   0.52950   0.53223   0.54052   0.54946
 Alpha virt. eigenvalues --    0.55420   0.56082   0.56321   0.57066   0.58007
 Alpha virt. eigenvalues --    0.58618   0.59159   0.60246   0.61397   0.62074
 Alpha virt. eigenvalues --    0.62387   0.62764   0.64237   0.64982   0.66545
 Alpha virt. eigenvalues --    0.67885   0.68023   0.69293   0.70178   0.71190
 Alpha virt. eigenvalues --    0.73324   0.73757   0.74704   0.76403   0.77172
 Alpha virt. eigenvalues --    0.78467   0.79425   0.80657   0.81218   0.81517
 Alpha virt. eigenvalues --    0.81900   0.82872   0.83995   0.84454   0.85142
 Alpha virt. eigenvalues --    0.85847   0.86546   0.87167   0.87532   0.88919
 Alpha virt. eigenvalues --    0.90704   0.91432   0.92434   0.93097   0.93696
 Alpha virt. eigenvalues --    0.94683   0.95044   0.95931   0.96655   0.98754
 Alpha virt. eigenvalues --    0.99624   1.00333   1.01023   1.02525   1.03349
 Alpha virt. eigenvalues --    1.05740   1.06978   1.09995   1.14409   1.15883
 Alpha virt. eigenvalues --    1.18554   1.20890   1.22765   1.23983   1.24900
 Alpha virt. eigenvalues --    1.25587   1.26829   1.28585   1.31278   1.32510
 Alpha virt. eigenvalues --    1.33971   1.34335   1.35386   1.36432   1.38190
 Alpha virt. eigenvalues --    1.38486   1.41284   1.42884   1.44649   1.45974
 Alpha virt. eigenvalues --    1.48044   1.48557   1.49667   1.51129   1.52333
 Alpha virt. eigenvalues --    1.52381   1.54978   1.56374   1.58763   1.62680
 Alpha virt. eigenvalues --    1.63125   1.65323   1.66362   1.68141   1.71444
 Alpha virt. eigenvalues --    1.75842   1.76424   1.77127   1.79691   1.81184
 Alpha virt. eigenvalues --    1.82136   1.84891   1.85539   1.85918   1.87781
 Alpha virt. eigenvalues --    1.89911   1.90473   1.91166   1.92387   1.92950
 Alpha virt. eigenvalues --    1.94256   1.96964   1.98276   2.00355   2.00528
 Alpha virt. eigenvalues --    2.02447   2.02666   2.04908   2.04990   2.06328
 Alpha virt. eigenvalues --    2.09148   2.10526   2.12034   2.15615   2.16011
 Alpha virt. eigenvalues --    2.19945   2.20590   2.21270   2.22753   2.23888
 Alpha virt. eigenvalues --    2.24524   2.26053   2.27269   2.28621   2.30078
 Alpha virt. eigenvalues --    2.32319   2.33503   2.34247   2.34864   2.36517
 Alpha virt. eigenvalues --    2.37278   2.39496   2.40601   2.41487   2.44983
 Alpha virt. eigenvalues --    2.48052   2.50987   2.54466   2.56750   2.57995
 Alpha virt. eigenvalues --    2.59225   2.61006   2.62797   2.63218   2.68294
 Alpha virt. eigenvalues --    2.69088   2.70838   2.71248   2.73542   2.76144
 Alpha virt. eigenvalues --    2.78463   2.79699   2.82590   2.83057   2.87880
 Alpha virt. eigenvalues --    2.95067   2.96663   2.97876   2.98367   3.05703
 Alpha virt. eigenvalues --    3.09821   3.11316   3.13020   3.27300   3.45577
 Alpha virt. eigenvalues --    3.75110   3.91152   4.03269   4.07272   4.09117
 Alpha virt. eigenvalues --    4.11214   4.11819   4.13795   4.15742   4.19078
 Alpha virt. eigenvalues --    4.24821   4.28800   4.29096   4.39801   4.45159
 Alpha virt. eigenvalues --    4.49394   4.50411   4.54148   4.79653
          Condensed to atoms (all electrons):
               1          2          3          4          5          6
     1  C    5.074224   0.353649  -0.037672  -0.001974   0.000119  -0.000075
     2  C    0.353649   5.087532   0.370686  -0.058699   0.004367   0.005408
     3  C   -0.037672   0.370686   4.550961   0.508436  -0.074255  -0.074303
     4  N   -0.001974  -0.058699   0.508436   6.842263   0.401343  -0.072802
     5  C    0.000119   0.004367  -0.074255   0.401343   4.695341   0.396750
     6  N   -0.000075   0.005408  -0.074303  -0.072802   0.396750   6.858019
     7  O   -0.000714  -0.052904   0.252991  -0.083039  -0.047782   0.133836
     8  C    0.000007  -0.000355   0.003879  -0.059398   0.332280  -0.063899
     9  N    0.000000   0.000003  -0.000172   0.000309  -0.072590  -0.002051
    10  C    0.000000  -0.000000   0.000008   0.001748  -0.000624   0.000090
    11  C    0.000000  -0.000000   0.000002  -0.000022  -0.000172   0.000010
    12  C   -0.000000   0.000000   0.000000  -0.000025  -0.000150  -0.000009
    13  C   -0.000000  -0.000000   0.000004   0.000198  -0.000106   0.000102
    14  C   -0.000000  -0.000000  -0.000009   0.000029   0.000897  -0.001407
    15  C   -0.000000   0.000000   0.000000  -0.000000   0.000015   0.000038
    16  C   -0.000000  -0.000000  -0.000000   0.000000  -0.000001   0.000001
    17  C   -0.000000   0.000000   0.000000  -0.000000   0.000005  -0.000001
    18  C   -0.000000  -0.000000  -0.000000  -0.000000   0.000000   0.000000
    19  O    0.000000  -0.000000   0.000000  -0.000000  -0.000000   0.000000
    20  H    0.380930  -0.035328  -0.005277   0.002597  -0.000088   0.000006
    21  H    0.372018  -0.029316   0.005082   0.000002  -0.000000   0.000001
    22  H    0.380731  -0.035551  -0.005434  -0.000125  -0.000037  -0.000087
    23  H   -0.033496   0.370618  -0.028696  -0.001601   0.000098  -0.000113
    24  H   -0.034345   0.367234  -0.028043   0.003003  -0.000126   0.000031
    25  H   -0.000000   0.000003  -0.000075   0.003070  -0.039174   0.000845
    26  H   -0.000001  -0.000005   0.000193  -0.000503  -0.031675   0.002879
    27  H    0.000000  -0.000000   0.000006   0.000542  -0.000203   0.000001
    28  H   -0.000000  -0.000000   0.000000   0.000000   0.000001  -0.000000
    29  H   -0.000000  -0.000000   0.000011   0.000047  -0.001128   0.006249
    30  H   -0.000000   0.000000  -0.000000  -0.000000  -0.000001  -0.000003
    31  H    0.000000   0.000000  -0.000000  -0.000000  -0.000000  -0.000000
    32  H    0.000000  -0.000000  -0.000000   0.000000  -0.000000   0.000000
               7          8          9         10         11         12
     1  C   -0.000714   0.000007   0.000000   0.000000   0.000000  -0.000000
     2  C   -0.052904  -0.000355   0.000003  -0.000000  -0.000000   0.000000
     3  C    0.252991   0.003879  -0.000172   0.000008   0.000002   0.000000
     4  N   -0.083039  -0.059398   0.000309   0.001748  -0.000022  -0.000025
     5  C   -0.047782   0.332280  -0.072590  -0.000624  -0.000172  -0.000150
     6  N    0.133836  -0.063899  -0.002051   0.000090   0.000010  -0.000009
     7  O    8.135575   0.005349  -0.000037   0.000002  -0.000000   0.000000
     8  C    0.005349   5.081234   0.298389  -0.043613   0.005714   0.006964
     9  N   -0.000037   0.298389   6.948872   0.375054  -0.086961  -0.034643
    10  C    0.000002  -0.043613   0.375054   4.870457   0.539194  -0.016080
    11  C   -0.000000   0.005714  -0.086961   0.539194   5.133203   0.439322
    12  C    0.000000   0.006964  -0.034643  -0.016080   0.439322   4.748821
    13  C   -0.000008  -0.038744   0.277032  -0.099568  -0.039432   0.472906
    14  C    0.000020  -0.002996  -0.093155   0.004194   0.016487  -0.054577
    15  C   -0.000000  -0.000104   0.005413  -0.000006   0.000178  -0.033824
    16  C   -0.000000   0.000005  -0.000475  -0.000278   0.006735  -0.008704
    17  C    0.000000  -0.000167   0.012858   0.010028  -0.099056   0.416605
    18  C   -0.000000  -0.000000  -0.000002   0.000003  -0.000158   0.006306
    19  O    0.000000   0.000000  -0.000000  -0.000000  -0.000001   0.001577
    20  H   -0.000019  -0.000001  -0.000000   0.000000   0.000000  -0.000000
    21  H   -0.000018  -0.000000  -0.000000  -0.000000  -0.000000   0.000000
    22  H    0.002203  -0.000001  -0.000000   0.000000   0.000000  -0.000000
    23  H    0.002404  -0.000006  -0.000000   0.000000  -0.000000  -0.000000
    24  H   -0.000424   0.000004  -0.000000  -0.000000   0.000000  -0.000000
    25  H   -0.000072   0.364829  -0.036021   0.002901  -0.000038  -0.000171
    26  H   -0.000079   0.365668  -0.036325  -0.001589   0.000082  -0.000081
    27  H    0.000000  -0.002073  -0.046106   0.364377  -0.028941   0.001094
    28  H    0.000000  -0.000103   0.003870  -0.047263   0.362895  -0.031794
    29  H   -0.000079   0.002425  -0.006737  -0.000129  -0.000204   0.004265
    30  H    0.000000   0.000002  -0.000098   0.000002   0.000010   0.000810
    31  H    0.000000   0.000003  -0.000079  -0.000127  -0.005502  -0.039482
    32  H    0.000000   0.000000  -0.000000  -0.000000   0.000002   0.000226
              13         14         15         16         17         18
     1  C   -0.000000  -0.000000  -0.000000  -0.000000  -0.000000  -0.000000
     2  C   -0.000000  -0.000000   0.000000  -0.000000   0.000000  -0.000000
     3  C    0.000004  -0.000009   0.000000  -0.000000   0.000000  -0.000000
     4  N    0.000198   0.000029  -0.000000   0.000000  -0.000000  -0.000000
     5  C   -0.000106   0.000897   0.000015  -0.000001   0.000005   0.000000
     6  N    0.000102  -0.001407   0.000038   0.000001  -0.000001   0.000000
     7  O   -0.000008   0.000020  -0.000000  -0.000000   0.000000  -0.000000
     8  C   -0.038744  -0.002996  -0.000104   0.000005  -0.000167  -0.000000
     9  N    0.277032  -0.093155   0.005413  -0.000475   0.012858  -0.000002
    10  C   -0.099568   0.004194  -0.000006  -0.000278   0.010028   0.000003
    11  C   -0.039432   0.016487   0.000178   0.006735  -0.099056  -0.000158
    12  C    0.472906  -0.054577  -0.033824  -0.008704   0.416605   0.006306
    13  C    4.731716   0.469584  -0.008724  -0.034303  -0.041492   0.000441
    14  C    0.469584   5.091450   0.498538  -0.011926  -0.064141   0.004451
    15  C   -0.008724   0.498538   5.045963   0.465494  -0.059869  -0.032618
    16  C   -0.034303  -0.011926   0.465494   5.051038   0.453010   0.276058
    17  C   -0.041492  -0.064141  -0.059869   0.453010   5.281112  -0.030337
    18  C    0.000441   0.004451  -0.032618   0.276058  -0.030337   4.708128
    19  O   -0.000008  -0.000094   0.003464  -0.086797   0.005459   0.545735
    20  H    0.000000   0.000000   0.000000  -0.000000  -0.000000   0.000000
    21  H    0.000000   0.000000   0.000000  -0.000000   0.000000   0.000000
    22  H    0.000000  -0.000000   0.000000   0.000000  -0.000000   0.000000
    23  H    0.000000   0.000000  -0.000000   0.000000  -0.000000   0.000000
    24  H   -0.000000   0.000000   0.000000  -0.000000   0.000000  -0.000000
    25  H   -0.002940   0.004186   0.000006   0.000001  -0.000019  -0.000000
    26  H    0.003067   0.000106   0.000003  -0.000000   0.000004  -0.000000
    27  H    0.005905  -0.000112   0.000002   0.000004  -0.000163  -0.000000
    28  H    0.007516  -0.000151   0.000004  -0.000058  -0.005783   0.000002
    29  H   -0.034661   0.345028  -0.034826   0.002856   0.000515  -0.000103
    30  H    0.002147  -0.038840   0.353407  -0.042688   0.005556  -0.006213
    31  H    0.004811   0.000108   0.006202  -0.041404   0.349408  -0.008621
    32  H   -0.000067  -0.000077  -0.000265  -0.122349   0.008873   0.348074
              19         20         21         22         23         24
     1  C    0.000000   0.380930   0.372018   0.380731  -0.033496  -0.034345
     2  C   -0.000000  -0.035328  -0.029316  -0.035551   0.370618   0.367234
     3  C    0.000000  -0.005277   0.005082  -0.005434  -0.028696  -0.028043
     4  N   -0.000000   0.002597   0.000002  -0.000125  -0.001601   0.003003
     5  C   -0.000000  -0.000088  -0.000000  -0.000037   0.000098  -0.000126
     6  N    0.000000   0.000006   0.000001  -0.000087  -0.000113   0.000031
     7  O    0.000000  -0.000019  -0.000018   0.002203   0.002404  -0.000424
     8  C    0.000000  -0.000001  -0.000000  -0.000001  -0.000006   0.000004
     9  N   -0.000000  -0.000000  -0.000000  -0.000000  -0.000000  -0.000000
    10  C   -0.000000   0.000000  -0.000000   0.000000   0.000000  -0.000000
    11  C   -0.000001   0.000000  -0.000000   0.000000  -0.000000   0.000000
    12  C    0.001577  -0.000000   0.000000  -0.000000  -0.000000  -0.000000
    13  C   -0.000008   0.000000   0.000000   0.000000   0.000000  -0.000000
    14  C   -0.000094   0.000000   0.000000  -0.000000   0.000000   0.000000
    15  C    0.003464   0.000000   0.000000   0.000000  -0.000000   0.000000
    16  C   -0.086797  -0.000000  -0.000000   0.000000   0.000000  -0.000000
    17  C    0.005459  -0.000000   0.000000  -0.000000  -0.000000   0.000000
    18  C    0.545735   0.000000   0.000000   0.000000   0.000000  -0.000000
    19  O    7.994686   0.000000   0.000000   0.000000  -0.000000  -0.000000
    20  H    0.000000   0.543718  -0.027289  -0.029521  -0.003983   0.004861
    21  H    0.000000  -0.027289   0.550821  -0.027409  -0.003318  -0.003378
    22  H    0.000000  -0.029521  -0.027409   0.547699   0.004863  -0.003966
    23  H   -0.000000  -0.003983  -0.003318   0.004863   0.537433  -0.030394
    24  H   -0.000000   0.004861  -0.003378  -0.003966  -0.030394   0.543878
    25  H    0.000000  -0.000000   0.000000   0.000000   0.000000  -0.000000
    26  H    0.000000   0.000001   0.000000   0.000000   0.000002   0.000000
    27  H    0.000000   0.000000  -0.000000   0.000000   0.000000  -0.000000
    28  H    0.000000   0.000000   0.000000   0.000000   0.000000   0.000000
    29  H    0.000000  -0.000000  -0.000000   0.000000   0.000000  -0.000000
    30  H    0.000091   0.000000   0.000000  -0.000000  -0.000000   0.000000
    31  H    0.013950   0.000000  -0.000000  -0.000000  -0.000000   0.000000
    32  H   -0.056543  -0.000000  -0.000000  -0.000000  -0.000000  -0.000000
              25         26         27         28         29         30
     1  C   -0.000000  -0.000001   0.000000  -0.000000  -0.000000  -0.000000
     2  C    0.000003  -0.000005  -0.000000  -0.000000  -0.000000   0.000000
     3  C   -0.000075   0.000193   0.000006   0.000000   0.000011  -0.000000
     4  N    0.003070  -0.000503   0.000542   0.000000   0.000047  -0.000000
     5  C   -0.039174  -0.031675  -0.000203   0.000001  -0.001128  -0.000001
     6  N    0.000845   0.002879   0.000001  -0.000000   0.006249  -0.000003
     7  O   -0.000072  -0.000079   0.000000   0.000000  -0.000079   0.000000
     8  C    0.364829   0.365668  -0.002073  -0.000103   0.002425   0.000002
     9  N   -0.036021  -0.036325  -0.046106   0.003870  -0.006737  -0.000098
    10  C    0.002901  -0.001589   0.364377  -0.047263  -0.000129   0.000002
    11  C   -0.000038   0.000082  -0.028941   0.362895  -0.000204   0.000010
    12  C   -0.000171  -0.000081   0.001094  -0.031794   0.004265   0.000810
    13  C   -0.002940   0.003067   0.005905   0.007516  -0.034661   0.002147
    14  C    0.004186   0.000106  -0.000112  -0.000151   0.345028  -0.038840
    15  C    0.000006   0.000003   0.000002   0.000004  -0.034826   0.353407
    16  C    0.000001  -0.000000   0.000004  -0.000058   0.002856  -0.042688
    17  C   -0.000019   0.000004  -0.000163  -0.005783   0.000515   0.005556
    18  C   -0.000000  -0.000000  -0.000000   0.000002  -0.000103  -0.006213
    19  O    0.000000   0.000000   0.000000   0.000000   0.000000   0.000091
    20  H   -0.000000   0.000001   0.000000   0.000000  -0.000000   0.000000
    21  H    0.000000   0.000000  -0.000000   0.000000  -0.000000   0.000000
    22  H    0.000000   0.000000   0.000000   0.000000   0.000000  -0.000000
    23  H    0.000000   0.000002   0.000000   0.000000   0.000000  -0.000000
    24  H   -0.000000   0.000000  -0.000000   0.000000  -0.000000   0.000000
    25  H    0.529759  -0.024674   0.000013   0.000005   0.002708  -0.000000
    26  H   -0.024674   0.528297   0.003915  -0.000013  -0.000021  -0.000000
    27  H    0.000013   0.003915   0.537632  -0.000866  -0.000000  -0.000000
    28  H    0.000005  -0.000013  -0.000866   0.573605   0.000003  -0.000000
    29  H    0.002708  -0.000021  -0.000000   0.000003   0.567601  -0.004377
    30  H   -0.000000  -0.000000  -0.000000  -0.000000  -0.004377   0.586384
    31  H    0.000000  -0.000000  -0.000001   0.002447   0.000016  -0.000132
    32  H    0.000000   0.000000   0.000000   0.000000   0.000008   0.008941
              31         32
     1  C    0.000000   0.000000
     2  C    0.000000  -0.000000
     3  C   -0.000000  -0.000000
     4  N   -0.000000   0.000000
     5  C   -0.000000  -0.000000
     6  N   -0.000000   0.000000
     7  O    0.000000   0.000000
     8  C    0.000003   0.000000
     9  N   -0.000079  -0.000000
    10  C   -0.000127  -0.000000
    11  C   -0.005502   0.000002
    12  C   -0.039482   0.000226
    13  C    0.004811  -0.000067
    14  C    0.000108  -0.000077
    15  C    0.006202  -0.000265
    16  C   -0.041404  -0.122349
    17  C    0.349408   0.008873
    18  C   -0.008621   0.348074
    19  O    0.013950  -0.056543
    20  H    0.000000  -0.000000
    21  H   -0.000000  -0.000000
    22  H   -0.000000  -0.000000
    23  H   -0.000000  -0.000000
    24  H    0.000000  -0.000000
    25  H    0.000000   0.000000
    26  H   -0.000000   0.000000
    27  H   -0.000001   0.000000
    28  H    0.002447   0.000000
    29  H    0.000016   0.000008
    30  H   -0.000132   0.008941
    31  H    0.558798   0.000547
    32  H    0.000547   0.710021
 Mulliken charges:
               1
     1  C   -0.453402
     2  C   -0.347339
     3  C    0.561676
     4  N   -0.485398
     5  C    0.436896
     6  N   -0.189518
     7  O   -0.347203
     8  C   -0.255290
     9  N   -0.506346
    10  C    0.041218
    11  C   -0.243348
    12  C    0.120643
    13  C    0.324626
    14  C   -0.167591
    15  C   -0.208489
    16  C    0.093782
    17  C   -0.242404
    18  C    0.188855
    19  O   -0.421519
    20  H    0.169392
    21  H    0.162805
    22  H    0.166635
    23  H    0.186190
    24  H    0.181665
    25  H    0.194856
    26  H    0.190749
    27  H    0.164973
    28  H    0.135682
    29  H    0.150534
    30  H    0.135003
    31  H    0.159059
    32  H    0.102610
 Sum of Mulliken charges =  -0.00000
 Mulliken charges with hydrogens summed into heavy atoms:
               1
     1  C    0.045429
     2  C    0.020516
     3  C    0.561676
     4  N   -0.485398
     5  C    0.436896
     6  N   -0.189518
     7  O   -0.347203
     8  C    0.130314
     9  N   -0.506346
    10  C    0.206191
    11  C   -0.107666
    12  C    0.120643
    13  C    0.324626
    14  C   -0.017057
    15  C   -0.073487
    16  C    0.093782
    17  C   -0.083345
    18  C    0.291465
    19  O   -0.421519
 Electronic spatial extent (au):  <R**2>=           6780.0355
 Charge=              0.0000 electrons
 Dipole moment (field-independent basis, Debye):
    X=              6.7821    Y=              1.1848    Z=              1.0862  Tot=              6.9700
 Quadrupole moment (field-independent basis, Debye-Ang):
   XX=           -119.9725   YY=           -103.9259   ZZ=           -106.0191
   XY=              0.2512   XZ=            -12.8422   YZ=              1.0092
 Traceless Quadrupole moment (field-independent basis, Debye-Ang):
   XX=            -10.0000   YY=              6.0466   ZZ=              3.9534
   XY=              0.2512   XZ=            -12.8422   YZ=              1.0092
 Octapole moment (field-independent basis, Debye-Ang**2):
  XXX=            291.6262  YYY=              2.7484  ZZZ=             -0.4881  XYY=            -14.9373
  XXY=             -7.1117  XXZ=             17.5918  XZZ=             27.5329  YZZ=              1.8988
  YYZ=             -4.1195  XYZ=             28.4277
 Hexadecapole moment (field-independent basis, Debye-Ang**3):
 XXXX=          -7945.2126 YYYY=          -1072.5633 ZZZZ=           -570.9516 XXXY=           -173.9391
 XXXZ=           -461.7610 YYYX=             47.0203 YYYZ=             -8.7561 ZZZX=             -5.3622
 ZZZY=             12.0653 XXYY=          -1352.0616 XXZZ=          -1320.3461 YYZZ=           -279.2395
 XXYZ=            -37.5960 YYXZ=              6.0913 ZZXY=            -13.5188
 N-N= 1.317418301584D+03 E-N=-4.625109282901D+03  KE= 8.480975279152D+02
 Calling FoFJK, ICntrl=      2127 FMM=F ISym2X=0 I1Cent= 0 IOpClX= 0 NMat=1 NMatS=1 NMatT=0.
 ***** Axes restored to original set *****
 -------------------------------------------------------------------
 Center     Atomic                   Forces (Hartrees/Bohr)
 Number     Number              X              Y              Z
 -------------------------------------------------------------------
      1        6           0.005553992   -0.004498862    0.011030815
      2        6          -0.007844531    0.003796864    0.001776137
      3        6           0.002369398    0.002664737   -0.010013933
      4        7           0.004261950    0.016017650    0.001274710
      5        6           0.026732333    0.022251874    0.013557464
      6        7          -0.016665322   -0.022970951   -0.005978408
      7        8          -0.012675685   -0.012399696    0.002824125
      8        6          -0.001170532   -0.005249592   -0.014519932
      9        7           0.018500303   -0.001079107    0.008383610
     10        6          -0.012147018    0.003191085   -0.013619842
     11        6          -0.013737176   -0.013307306    0.008444169
     12        6          -0.013116346    0.008599066   -0.023629630
     13        6           0.017026605    0.005509724    0.009299244
     14        6           0.003596324    0.003055845   -0.002146205
     15        6           0.011530616   -0.008035639    0.021690189
     16        6          -0.010019519    0.000829138   -0.009865516
     17        6           0.000208857   -0.003968503    0.006374189
     18        6          -0.019815016   -0.011492661   -0.000859500
     19        8           0.009022761    0.005487227    0.000107880
     20        1          -0.000332056    0.000503509   -0.000350954
     21        1           0.000192762    0.000003623    0.000170824
     22        1          -0.000313203    0.000299640    0.000079244
     23        1           0.001031222   -0.001270120   -0.002662177
     24        1           0.001327100   -0.001021293   -0.002917093
     25        1           0.000664349    0.003192484    0.003777785
     26        1          -0.000322787    0.003089807    0.000913267
     27        1           0.001638437    0.001618645   -0.000734291
     28        1           0.000680769    0.000301460   -0.000110816
     29        1          -0.001349148   -0.000109033    0.000895080
     30        1          -0.001363545   -0.000059671   -0.001325635
     31        1           0.002527732    0.002294078   -0.001320420
     32        1           0.004006373    0.002755975   -0.000544378
 -------------------------------------------------------------------
 Cartesian Forces:  Max     0.026732333 RMS     0.008860675

 GradGradGradGradGradGradGradGradGradGradGradGradGradGradGradGradGradGrad
 Berny optimization.
 FormGI is forming the generalized inverse of G from B-inverse, IUseBI=4.
 Internal  Forces:  Max     0.030477984 RMS     0.004936971
 Search for a local minimum.
 Step number   1 out of a maximum of  181
 All quantities printed in internal units (Hartrees-Bohrs-Radians)
 Mixed Optimization -- RFO/linear search
 Second derivative matrix not updated -- first step.
 ITU=  0
     Eigenvalues ---    0.00512   0.00916   0.01009   0.01031   0.01070
     Eigenvalues ---    0.01070   0.01485   0.01520   0.01586   0.01799
     Eigenvalues ---    0.01939   0.01976   0.02002   0.02030   0.02048
     Eigenvalues ---    0.02061   0.02092   0.02114   0.02119   0.02124
     Eigenvalues ---    0.02135   0.02271   0.02405   0.04413   0.05319
     Eigenvalues ---    0.05596   0.05600   0.05680   0.06666   0.09317
     Eigenvalues ---    0.09883   0.12770   0.13182   0.15999   0.15999
     Eigenvalues ---    0.16000   0.16000   0.16000   0.16000   0.16000
     Eigenvalues ---    0.16000   0.16000   0.21929   0.21970   0.22000
     Eigenvalues ---    0.22420   0.22842   0.23548   0.24573   0.24830
     Eigenvalues ---    0.24944   0.24975   0.24991   0.24998   0.24999
     Eigenvalues ---    0.25000   0.30441   0.33363   0.34146   0.34150
     Eigenvalues ---    0.34164   0.34185   0.34188   0.34196   0.34290
     Eigenvalues ---    0.34380   0.34571   0.34914   0.35101   0.35157
     Eigenvalues ---    0.35251   0.35666   0.35712   0.37133   0.38694
     Eigenvalues ---    0.39820   0.41203   0.43779   0.44038   0.45142
     Eigenvalues ---    0.45183   0.46043   0.46257   0.46567   0.48367
     Eigenvalues ---    0.49569   0.50351   0.54725   0.61549   0.93318
 RFO step:  Lambda=-1.19098675D-02 EMin= 5.11650397D-03
 Linear search not attempted -- first point.
 Iteration  1 RMS(Cart)=  0.04280844 RMS(Int)=  0.00061411
 Iteration  2 RMS(Cart)=  0.00108046 RMS(Int)=  0.00022101
 Iteration  3 RMS(Cart)=  0.00000052 RMS(Int)=  0.00022101
 Variable       Old X    -DE/DX   Delta X   Delta X   Delta X     New X
                                 (Linear)    (Quad)   (Total)
    R1        2.87092   0.01259   0.00000   0.03980   0.03980   2.91072
    R2        2.07020  -0.00049   0.00000  -0.00139  -0.00139   2.06881
    R3        2.06844   0.00006   0.00000   0.00016   0.00016   2.06860
    R4        2.07014  -0.00024   0.00000  -0.00068  -0.00068   2.06946
    R5        2.79677   0.00505   0.00000   0.01412   0.01412   2.81090
    R6        2.07054  -0.00078   0.00000  -0.00222  -0.00222   2.06832
    R7        2.07084  -0.00079   0.00000  -0.00223  -0.00223   2.06861
    R8        2.48223  -0.01301   0.00000  -0.01971  -0.01976   2.46247
    R9        2.57874  -0.01333   0.00000  -0.02409  -0.02425   2.55450
   R10        2.59918   0.00105   0.00000   0.00129   0.00142   2.60060
   R11        2.53573  -0.03048   0.00000  -0.05337  -0.05323   2.48250
   R12        2.79993   0.00824   0.00000   0.02316   0.02316   2.82309
   R13        2.63774   0.00293   0.00000   0.00637   0.00632   2.64406
   R14        2.75646   0.00071   0.00000   0.00185   0.00185   2.75831
   R15        2.07001  -0.00125   0.00000  -0.00353  -0.00353   2.06647
   R16        2.07077  -0.00228   0.00000  -0.00644  -0.00644   2.06433
   R17        2.59619   0.01504   0.00000   0.02728   0.02737   2.62356
   R18        2.61485  -0.00390   0.00000  -0.00778  -0.00776   2.60709
   R19        2.59839  -0.00225   0.00000  -0.00576  -0.00572   2.59267
   R20        2.04607  -0.00198   0.00000  -0.00537  -0.00537   2.04071
   R21        2.68472   0.01072   0.00000   0.02595   0.02589   2.71060
   R22        2.04534  -0.00068   0.00000  -0.00185  -0.00185   2.04349
   R23        2.64366   0.02439   0.00000   0.05504   0.05494   2.69860
   R24        2.66131  -0.00804   0.00000  -0.01710  -0.01710   2.64421
   R25        2.65545  -0.00576   0.00000  -0.01218  -0.01221   2.64324
   R26        2.64316  -0.00980   0.00000  -0.02141  -0.02141   2.62175
   R27        2.05269  -0.00064   0.00000  -0.00176  -0.00176   2.05093
   R28        2.63574   0.01839   0.00000   0.03767   0.03770   2.67345
   R29        2.05511  -0.00062   0.00000  -0.00171  -0.00171   2.05340
   R30        2.64663  -0.00447   0.00000  -0.00992  -0.00989   2.63674
   R31        2.79115   0.00014   0.00000   0.00039   0.00039   2.79154
   R32        2.05420  -0.00163   0.00000  -0.00449  -0.00449   2.04971
   R33        2.31440  -0.00783   0.00000  -0.00828  -0.00828   2.30612
   R34        2.08419   0.00483   0.00000   0.01398   0.01398   2.09817
    A1        1.94062  -0.00066   0.00000  -0.00370  -0.00370   1.93692
    A2        1.92540   0.00039   0.00000   0.00205   0.00206   1.92745
    A3        1.94091  -0.00006   0.00000  -0.00024  -0.00024   1.94067
    A4        1.88652   0.00011   0.00000   0.00046   0.00046   1.88698
    A5        1.88157   0.00045   0.00000   0.00304   0.00304   1.88461
    A6        1.88684  -0.00022   0.00000  -0.00154  -0.00154   1.88530
    A7        1.94310   0.00379   0.00000   0.01483   0.01492   1.95802
    A8        1.91084   0.00056   0.00000   0.01193   0.01198   1.92281
    A9        1.91312   0.00058   0.00000   0.01126   0.01132   1.92444
   A10        1.90766  -0.00294   0.00000  -0.02250  -0.02265   1.88501
   A11        1.91989  -0.00318   0.00000  -0.02512  -0.02525   1.89463
   A12        1.86767   0.00107   0.00000   0.00939   0.00892   1.87659
   A13        2.26315   0.00120   0.00000   0.00327   0.00323   2.26638
   A14        2.04013   0.00697   0.00000   0.02530   0.02525   2.06539
   A15        1.97983  -0.00817   0.00000  -0.02887  -0.02911   1.95072
   A16        1.78212   0.00468   0.00000   0.01727   0.01740   1.79951
   A17        2.00076   0.00105   0.00000   0.00276   0.00169   2.00245
   A18        2.14286   0.00167   0.00000   0.00894   0.00752   2.15038
   A19        2.13836  -0.00261   0.00000  -0.00736  -0.00878   2.12958
   A20        1.80268  -0.00260   0.00000  -0.01184  -0.01168   1.79100
   A21        1.85860   0.00510   0.00000   0.02266   0.02243   1.88103
   A22        1.93826   0.00386   0.00000   0.01631   0.01643   1.95469
   A23        1.95648  -0.00516   0.00000  -0.03687  -0.03711   1.91937
   A24        1.92783  -0.00180   0.00000  -0.01539  -0.01555   1.91228
   A25        1.88142   0.00261   0.00000   0.02681   0.02697   1.90839
   A26        1.88246  -0.00101   0.00000  -0.00015  -0.00009   1.88237
   A27        1.87444   0.00165   0.00000   0.01121   0.01068   1.88512
   A28        2.16753   0.00726   0.00000   0.02968   0.02953   2.19706
   A29        2.19460  -0.00130   0.00000  -0.00306  -0.00322   2.19139
   A30        1.91974  -0.00592   0.00000  -0.02527  -0.02531   1.89443
   A31        1.88535   0.01111   0.00000   0.04136   0.04146   1.92681
   A32        2.11674  -0.00697   0.00000  -0.02889  -0.02894   2.08780
   A33        2.28107  -0.00414   0.00000  -0.01245  -0.01250   2.26857
   A34        1.88102  -0.00546   0.00000  -0.02385  -0.02388   1.85714
   A35        2.19288   0.00303   0.00000   0.01366   0.01368   2.20656
   A36        2.20928   0.00243   0.00000   0.01018   0.01019   2.21947
   A37        1.87436  -0.00151   0.00000  -0.00156  -0.00167   1.87269
   A38        2.32887   0.00218   0.00000   0.00344   0.00353   2.33240
   A39        2.07996  -0.00067   0.00000  -0.00188  -0.00187   2.07810
   A40        1.86430   0.00179   0.00000   0.00936   0.00935   1.87365
   A41        2.28995  -0.00472   0.00000  -0.02175  -0.02168   2.26827
   A42        2.12891   0.00293   0.00000   0.01238   0.01232   2.14124
   A43        2.06144  -0.00535   0.00000  -0.02238  -0.02244   2.03900
   A44        2.12341   0.00151   0.00000   0.00436   0.00438   2.12779
   A45        2.09826   0.00384   0.00000   0.01796   0.01798   2.11623
   A46        2.10424   0.00504   0.00000   0.01991   0.01991   2.12415
   A47        2.07167  -0.00067   0.00000   0.00078   0.00078   2.07245
   A48        2.10726  -0.00437   0.00000  -0.02070  -0.02070   2.08656
   A49        2.11395  -0.00002   0.00000  -0.00128  -0.00125   2.11270
   A50        2.07840   0.00166   0.00000   0.00694   0.00692   2.08532
   A51        2.09083  -0.00164   0.00000  -0.00567  -0.00568   2.08515
   A52        2.07785  -0.00194   0.00000  -0.00674  -0.00673   2.07112
   A53        2.10055   0.00433   0.00000   0.02294   0.02294   2.12348
   A54        2.10478  -0.00240   0.00000  -0.01619  -0.01620   2.08858
   A55        2.13649   0.01147   0.00000   0.04946   0.04946   2.18595
   A56        2.03214  -0.00654   0.00000  -0.02939  -0.02939   2.00275
   A57        2.11455  -0.00493   0.00000  -0.02007  -0.02007   2.09448
    D1       -1.04642  -0.00011   0.00000  -0.00108  -0.00108  -1.04750
    D2        1.06486  -0.00097   0.00000  -0.01172  -0.01173   1.05312
    D3        3.10857   0.00099   0.00000   0.01311   0.01312   3.12170
    D4       -3.13925  -0.00007   0.00000  -0.00061  -0.00061  -3.13986
    D5       -1.02797  -0.00093   0.00000  -0.01125  -0.01126  -1.03924
    D6        1.01574   0.00102   0.00000   0.01357   0.01359   1.02934
    D7        1.05052  -0.00002   0.00000   0.00012   0.00011   1.05063
    D8       -3.12139  -0.00088   0.00000  -0.01052  -0.01054  -3.13193
    D9       -1.07768   0.00107   0.00000   0.01430   0.01432  -1.06336
   D10        1.52539  -0.00035   0.00000  -0.01082  -0.01099   1.51440
   D11       -1.60255   0.00055   0.00000   0.01910   0.01926  -1.58330
   D12       -0.58775  -0.00153   0.00000  -0.02031  -0.02026  -0.60801
   D13        2.56750  -0.00063   0.00000   0.00961   0.00998   2.57748
   D14       -2.63353   0.00075   0.00000  -0.00383  -0.00420  -2.63773
   D15        0.52171   0.00165   0.00000   0.02608   0.02604   0.54775
   D16        3.12937   0.00203   0.00000   0.06080   0.06025  -3.09356
   D17       -0.02549   0.00125   0.00000   0.03205   0.03192   0.00643
   D18        3.13590  -0.00114   0.00000  -0.03167  -0.03170   3.10420
   D19        0.00576  -0.00044   0.00000  -0.00674  -0.00687  -0.00111
   D20        0.03857  -0.00133   0.00000  -0.04819  -0.04890  -0.01033
   D21        3.12862   0.00110   0.00000   0.04442   0.04431  -3.11026
   D22       -0.03551   0.00136   0.00000   0.04546   0.04504   0.00953
   D23       -3.12570  -0.00121   0.00000  -0.04742  -0.04747   3.11002
   D24        1.42420  -0.00266   0.00000  -0.07840  -0.07832   1.34588
   D25       -2.75326  -0.00017   0.00000  -0.05803  -0.05833  -2.81159
   D26       -0.66361  -0.00272   0.00000  -0.07870  -0.07849  -0.74211
   D27       -1.77297   0.00009   0.00000   0.02179   0.02188  -1.75108
   D28        0.33276   0.00258   0.00000   0.04216   0.04187   0.37463
   D29        2.42240   0.00003   0.00000   0.02148   0.02171   2.44411
   D30        0.01741  -0.00041   0.00000  -0.02239  -0.02240  -0.00499
   D31       -1.75164  -0.00053   0.00000  -0.00238  -0.00217  -1.75380
   D32        1.45062  -0.00124   0.00000  -0.03279  -0.03285   1.41777
   D33        2.38205   0.00170   0.00000   0.01524   0.01534   2.39739
   D34       -0.69888   0.00100   0.00000  -0.01517  -0.01534  -0.71422
   D35        0.36305  -0.00105   0.00000  -0.01151  -0.01141   0.35164
   D36       -2.71788  -0.00176   0.00000  -0.04191  -0.04209  -2.75997
   D37       -3.09282  -0.00025   0.00000  -0.01249  -0.01250  -3.10532
   D38        0.05637  -0.00036   0.00000  -0.01529  -0.01531   0.04106
   D39       -0.00361   0.00043   0.00000   0.01413   0.01416   0.01055
   D40       -3.13761   0.00031   0.00000   0.01133   0.01135  -3.12626
   D41        3.09119   0.00056   0.00000   0.01472   0.01446   3.10565
   D42       -0.05688   0.00049   0.00000   0.01286   0.01261  -0.04427
   D43        0.00299  -0.00044   0.00000  -0.01360  -0.01331  -0.01032
   D44        3.13811  -0.00051   0.00000  -0.01546  -0.01516   3.12295
   D45        0.00275  -0.00027   0.00000  -0.00895  -0.00898  -0.00623
   D46       -3.13717  -0.00020   0.00000  -0.00579  -0.00582   3.14020
   D47        3.13578  -0.00015   0.00000  -0.00585  -0.00585   3.12994
   D48       -0.00414  -0.00007   0.00000  -0.00269  -0.00268  -0.00682
   D49       -0.00093   0.00002   0.00000   0.00073   0.00072  -0.00021
   D50       -3.14150   0.00007   0.00000   0.00231   0.00231  -3.13919
   D51        3.13897  -0.00006   0.00000  -0.00246  -0.00248   3.13649
   D52       -0.00160  -0.00001   0.00000  -0.00088  -0.00088  -0.00248
   D53       -0.00123   0.00024   0.00000   0.00769   0.00774   0.00651
   D54       -3.13708   0.00033   0.00000   0.00949   0.00958  -3.12750
   D55        3.13951   0.00020   0.00000   0.00638   0.00642  -3.13726
   D56        0.00366   0.00029   0.00000   0.00818   0.00826   0.01192
   D57        3.13673  -0.00008   0.00000  -0.00213  -0.00209   3.13464
   D58       -0.00152  -0.00010   0.00000  -0.00344  -0.00344  -0.00496
   D59       -0.00375  -0.00002   0.00000  -0.00040  -0.00034  -0.00409
   D60        3.14119  -0.00005   0.00000  -0.00171  -0.00169   3.13950
   D61       -3.13506  -0.00029   0.00000  -0.00910  -0.00906   3.13906
   D62       -0.00655  -0.00047   0.00000  -0.01478  -0.01475  -0.02130
   D63       -0.00078  -0.00038   0.00000  -0.01124  -0.01120  -0.01198
   D64        3.12773  -0.00055   0.00000  -0.01691  -0.01688   3.11085
   D65       -0.00198   0.00022   0.00000   0.00669   0.00668   0.00469
   D66        3.13559   0.00011   0.00000   0.00312   0.00308   3.13866
   D67       -3.13069   0.00041   0.00000   0.01238   0.01243  -3.11827
   D68        0.00688   0.00030   0.00000   0.00882   0.00883   0.01570
   D69        0.00185   0.00004   0.00000   0.00077   0.00076   0.00261
   D70        3.14111  -0.00004   0.00000  -0.00185  -0.00186   3.13925
   D71       -3.13564   0.00015   0.00000   0.00435   0.00434  -3.13131
   D72        0.00362   0.00006   0.00000   0.00173   0.00172   0.00534
   D73        0.00107  -0.00012   0.00000  -0.00392  -0.00392  -0.00285
   D74        3.13931  -0.00007   0.00000  -0.00254  -0.00252   3.13679
   D75       -3.13817  -0.00004   0.00000  -0.00130  -0.00132  -3.13949
   D76        0.00007   0.00000   0.00000   0.00008   0.00008   0.00015
   D77        3.13347   0.00012   0.00000   0.00488   0.00487   3.13834
   D78       -0.00718   0.00005   0.00000   0.00188   0.00188  -0.00531
   D79       -0.01043   0.00004   0.00000   0.00230   0.00230  -0.00813
   D80        3.13211  -0.00003   0.00000  -0.00070  -0.00070   3.13141
         Item               Value     Threshold  Converged?
 Maximum Force            0.030478     0.000450     NO 
 RMS     Force            0.004937     0.000300     NO 
 Maximum Displacement     0.175496     0.001800     NO 
 RMS     Displacement     0.043452     0.001200     NO 
 Predicted change in Energy=-6.401689D-03
 GradGradGradGradGradGradGradGradGradGradGradGradGradGradGradGradGradGrad

                          Input orientation:                          
 ---------------------------------------------------------------------
 Center     Atomic      Atomic             Coordinates (Angstroms)
 Number     Number       Type             X           Y           Z
 ---------------------------------------------------------------------
      1          6           0        0.978724    0.119085   -0.052561
      2          6           0        0.340039    0.638964   -1.354210
      3          6           0        0.950350    0.024740   -2.563671
      4          7           0        0.655255   -1.087790   -3.174589
      5          6           0        1.595199   -1.151720   -4.177726
      6          7           0        2.430116   -0.138133   -4.214004
      7          8           0        2.005429    0.646386   -3.136103
      8          6           0        1.640746   -2.251872   -5.187369
      9          7           0        0.620120   -2.090384   -6.218281
     10          6           0       -0.593961   -2.761505   -6.273574
     11          6           0       -1.288311   -2.401734   -7.400860
     12          6           0       -0.472263   -1.445300   -8.091344
     13          6           0        0.716888   -1.266995   -7.321002
     14          6           0        1.734734   -0.384068   -7.696381
     15          6           0        1.550099    0.318005   -8.878666
     16          6           0        0.386143    0.155051   -9.666132
     17          6           0       -0.627887   -0.721634   -9.278779
     18          6           0        0.239093    0.929939  -10.915173
     19          8           0       -0.715402    0.869560  -11.673156
     20          1           0        0.857880   -0.965262    0.037424
     21          1           0        0.508019    0.587409    0.817712
     22          1           0        2.050064    0.343680   -0.020079
     23          1           0       -0.731170    0.414589   -1.364775
     24          1           0        0.449745    1.725972   -1.422491
     25          1           0        2.627621   -2.287116   -5.657097
[...]
   328    C   15  dyz    Ryd( 3d)     0.00030       2.21658
   329    C   15  dx2y2  Ryd( 3d)     0.00034       2.18043
   330    C   15  dz2    Ryd( 3d)     0.00023       1.98464
 
   331    C   16  S      Cor( 1S)     0.99950      -9.90214
   332    C   16  S      Val( 2S)     0.45542      -0.00734
   333    C   16  S      Ryd( 4S)     0.00076       0.96128
   334    C   16  S      Ryd( 3S)     0.00002       0.86215
   335    C   16  S      Ryd( 5S)     0.00001      23.29692
   336    C   16  px     Val( 2p)     0.54272       0.05569
   337    C   16  px     Ryd( 4p)     0.00268       1.27550
   338    C   16  px     Ryd( 3p)     0.00013       0.73896
   339    C   16  px     Ryd( 5p)     0.00003       3.24332
   340    C   16  py     Val( 2p)     0.54452       0.05822
   341    C   16  py     Ryd( 4p)     0.00172       1.23382
   342    C   16  py     Ryd( 3p)     0.00014       0.67434
   343    C   16  py     Ryd( 5p)     0.00006       3.23324
   344    C   16  pz     Val( 2p)     0.53823       0.05202
   345    C   16  pz     Ryd( 4p)     0.00176       1.03983
   346    C   16  pz     Ryd( 3p)     0.00015       0.56750
   347    C   16  pz     Ryd( 5p)     0.00003       3.15359
   348    C   16  dxy    Ryd( 3d)     0.00035       2.36303
   349    C   16  dxz    Ryd( 3d)     0.00024       2.32947
   350    C   16  dyz    Ryd( 3d)     0.00023       2.33885
   351    C   16  dx2y2  Ryd( 3d)     0.00023       2.23742
   352    C   16  dz2    Ryd( 3d)     0.00029       2.00941
 
   353    C   17  S      Cor( 1S)     0.99949      -9.89245
   354    C   17  S      Val( 2S)     0.45846      -0.00047
   355    C   17  S      Ryd( 3S)     0.00051       1.33884
   356    C   17  S      Ryd( 4S)     0.00002       3.22745
   357    C   17  S      Ryd( 5S)     0.00001      20.49688
   358    C   17  px     Val( 2p)     0.53158       0.07031
   359    C   17  px     Ryd( 4p)     0.00222       0.93686
   360    C   17  px     Ryd( 3p)     0.00030       0.70643
   361    C   17  px     Ryd( 5p)     0.00007       3.18128
   362    C   17  py     Val( 2p)     0.50609       0.07533
   363    C   17  py     Ryd( 4p)     0.00166       0.77026
   364    C   17  py     Ryd( 3p)     0.00023       0.63831
   365    C   17  py     Ryd( 5p)     0.00007       3.21542
   366    C   17  pz     Val( 2p)     0.52026       0.05306
   367    C   17  pz     Ryd( 4p)     0.00170       0.80165
   368    C   17  pz     Ryd( 3p)     0.00027       0.62665
   369    C   17  pz     Ryd( 5p)     0.00004       3.04876
   370    C   17  dxy    Ryd( 3d)     0.00028       2.43806
   371    C   17  dxz    Ryd( 3d)     0.00036       2.23001
   372    C   17  dyz    Ryd( 3d)     0.00030       2.32724
   373    C   17  dx2y2  Ryd( 3d)     0.00031       2.24186
   374    C   17  dz2    Ryd( 3d)     0.00024       2.00620
 
   375    C   18  S      Cor( 1S)     0.99968      -9.97360
   376    C   18  S      Val( 2S)     0.44330      -0.02687
   377    C   18  S      Ryd( 3S)     0.00503       0.94843
   378    C   18  S      Ryd( 4S)     0.00009       1.25387
   379    C   18  S      Ryd( 5S)     0.00002      22.52617
   380    C   18  px     Val( 2p)     0.41401       0.10205
   381    C   18  px     Ryd( 3p)     0.00510       0.93745
   382    C   18  px     Ryd( 4p)     0.00044       1.07468
   383    C   18  px     Ryd( 5p)     0.00006       2.26778
   384    C   18  py     Val( 2p)     0.48095       0.07300
   385    C   18  py     Ryd( 4p)     0.00091       1.03329
   386    C   18  py     Ryd( 3p)     0.00043       1.01229
   387    C   18  py     Ryd( 5p)     0.00004       2.22912
   388    C   18  pz     Val( 2p)     0.40437       0.07682
   389    C   18  pz     Ryd( 3p)     0.00360       0.97677
   390    C   18  pz     Ryd( 4p)     0.00041       0.99957
   391    C   18  pz     Ryd( 5p)     0.00006       2.25841
   392    C   18  dxy    Ryd( 3d)     0.00087       2.29352
   393    C   18  dxz    Ryd( 3d)     0.00061       2.34836
   394    C   18  dyz    Ryd( 3d)     0.00100       2.13227
   395    C   18  dx2y2  Ryd( 3d)     0.00084       2.13941
   396    C   18  dz2    Ryd( 3d)     0.00110       1.95454
 
   397    O   19  S      Cor( 1S)     0.99988     -18.70250
   398    O   19  S      Val( 2S)     0.84718      -0.73307
   399    O   19  S      Ryd( 3S)     0.00176       0.97456
   400    O   19  S      Ryd( 4S)     0.00009       1.58876
   401    O   19  S      Ryd( 5S)     0.00000      49.80613
   402    O   19  px     Val( 2p)     0.79867      -0.13413
   403    O   19  px     Ryd( 3p)     0.00092       0.75951
   404    O   19  px     Ryd( 4p)     0.00005       1.21665
   405    O   19  px     Ryd( 5p)     0.00003       5.17607
   406    O   19  py     Val( 2p)     0.86017      -0.11283
   407    O   19  py     Ryd( 3p)     0.00191       0.66772
   408    O   19  py     Ryd( 4p)     0.00003       1.31709
   409    O   19  py     Ryd( 5p)     0.00001       4.97957
   410    O   19  pz     Val( 2p)     0.75283      -0.12500
   411    O   19  pz     Ryd( 3p)     0.00056       0.66855
   412    O   19  pz     Ryd( 4p)     0.00007       1.20256
   413    O   19  pz     Ryd( 5p)     0.00003       5.14509
   414    O   19  dxy    Ryd( 3d)     0.00039       3.20243
   415    O   19  dxz    Ryd( 3d)     0.00063       3.64447
   416    O   19  dyz    Ryd( 3d)     0.00029       3.19722
   417    O   19  dx2y2  Ryd( 3d)     0.00037       3.28327
   418    O   19  dz2    Ryd( 3d)     0.00059       3.22699
 
   419    H   20  S      Val( 1S)     0.40080       0.11600
   420    H   20  S      Ryd( 2S)     0.00031       0.39156
   421    H   20  S      Ryd( 4S)     0.00032       1.40024
   422    H   20  S      Ryd( 3S)     0.00003       1.11949
   423    H   20  px     Ryd( 2p)     0.00008       1.94021
   424    H   20  py     Ryd( 2p)     0.00014       2.59142
   425    H   20  pz     Ryd( 2p)     0.00007       1.90011
 
   426    H   21  S      Val( 1S)     0.39641       0.11432
   427    H   21  S      Ryd( 2S)     0.00139       0.20205
   428    H   21  S      Ryd( 4S)     0.00021       1.48957
   429    H   21  S      Ryd( 3S)     0.00002       1.18757
   430    H   21  px     Ryd( 2p)     0.00010       2.14237
   431    H   21  py     Ryd( 2p)     0.00008       1.98196
   432    H   21  pz     Ryd( 2p)     0.00011       2.33118
 
   433    H   22  S      Val( 1S)     0.39755       0.12221
   434    H   22  S      Ryd( 2S)     0.00054       0.36374
   435    H   22  S      Ryd( 4S)     0.00037       1.51601
   436    H   22  S      Ryd( 3S)     0.00003       1.01757
   437    H   22  px     Ryd( 2p)     0.00007       1.84098
   438    H   22  py     Ryd( 2p)     0.00009       2.23660
   439    H   22  pz     Ryd( 2p)     0.00013       2.41419
 
   440    H   23  S      Val( 1S)     0.38749       0.12376
   441    H   23  S      Ryd( 2S)     0.00048       0.38325
   442    H   23  S      Ryd( 4S)     0.00044       1.63707
   443    H   23  S      Ryd( 3S)     0.00003       1.05210
   444    H   23  px     Ryd( 2p)     0.00008       1.87946
   445    H   23  py     Ryd( 2p)     0.00009       2.22115
   446    H   23  pz     Ryd( 2p)     0.00011       2.41455
 
   447    H   24  S      Val( 1S)     0.38677       0.11403
   448    H   24  S      Ryd( 2S)     0.00050       0.45875
   449    H   24  S      Ryd( 4S)     0.00043       1.37722
   450    H   24  S      Ryd( 3S)     0.00005       1.25068
   451    H   24  px     Ryd( 2p)     0.00010       2.00573
   452    H   24  py     Ryd( 2p)     0.00011       2.61378
   453    H   24  pz     Ryd( 2p)     0.00008       1.97866
 
   454    H   25  S      Val( 1S)     0.39061       0.10680
   455    H   25  S      Ryd( 3S)     0.00063       0.97613
   456    H   25  S      Ryd( 4S)     0.00008       1.90522
   457    H   25  S      Ryd( 2S)     0.00002       0.44279
   458    H   25  px     Ryd( 2p)     0.00007       1.92974
   459    H   25  py     Ryd( 2p)     0.00009       2.00150
   460    H   25  pz     Ryd( 2p)     0.00017       2.79443
 
   461    H   26  S      Val( 1S)     0.39258       0.09791
   462    H   26  S      Ryd( 2S)     0.00051       0.90859
   463    H   26  S      Ryd( 4S)     0.00006       1.53233
   464    H   26  S      Ryd( 3S)     0.00005       0.95780
   465    H   26  px     Ryd( 2p)     0.00012       2.09266
   466    H   26  py     Ryd( 2p)     0.00016       2.64717
   467    H   26  pz     Ryd( 2p)     0.00008       1.95170
 
   468    H   27  S      Val( 1S)     0.40288       0.12667
   469    H   27  S      Ryd( 4S)     0.00023       1.51619
   470    H   27  S      Ryd( 3S)     0.00012       1.00605
   471    H   27  S      Ryd( 2S)     0.00003       0.69051
   472    H   27  px     Ryd( 2p)     0.00016       2.26870
   473    H   27  py     Ryd( 2p)     0.00021       2.42213
   474    H   27  pz     Ryd( 2p)     0.00012       1.90063
 
   475    H   28  S      Val( 1S)     0.39651       0.15319
   476    H   28  S      Ryd( 3S)     0.00030       0.72060
   477    H   28  S      Ryd( 4S)     0.00013       2.07758
   478    H   28  S      Ryd( 2S)     0.00004       0.47357
   479    H   28  px     Ryd( 2p)     0.00010       2.12162
   480    H   28  py     Ryd( 2p)     0.00013       2.19762
   481    H   28  pz     Ryd( 2p)     0.00018       2.33984
 
   482    H   29  S      Val( 1S)     0.39309       0.16324
   483    H   29  S      Ryd( 3S)     0.00089       0.62725
   484    H   29  S      Ryd( 4S)     0.00018       2.51431
   485    H   29  S      Ryd( 2S)     0.00003       0.41813
   486    H   29  px     Ryd( 2p)     0.00016       2.39830
   487    H   29  py     Ryd( 2p)     0.00009       2.09908
   488    H   29  pz     Ryd( 2p)     0.00015       2.27130
 
   489    H   30  S      Val( 1S)     0.40381       0.15793
   490    H   30  S      Ryd( 3S)     0.00071       1.08361
   491    H   30  S      Ryd( 4S)     0.00011       1.85518
   492    H   30  S      Ryd( 2S)     0.00004       0.39204
   493    H   30  px     Ryd( 2p)     0.00008       2.05395
   494    H   30  py     Ryd( 2p)     0.00019       2.51399
   495    H   30  pz     Ryd( 2p)     0.00013       2.13280
 
   496    H   31  S      Val( 1S)     0.39175       0.16795
   497    H   31  S      Ryd( 2S)     0.00044       1.46038
   498    H   31  S      Ryd( 3S)     0.00009       1.64413
   499    H   31  px     Ryd( 2p)     0.00017       2.40441
   500    H   31  py     Ryd( 2p)     0.00008       2.11854
   501    H   31  pz     Ryd( 2p)     0.00016       2.30933
 
   502    H   32  S      Val( 1S)     0.46469       0.09955
   503    H   32  S      Ryd( 3S)     0.00220       0.60743
   504    H   32  S      Ryd( 4S)     0.00007       2.18381
   505    H   32  S      Ryd( 2S)     0.00004       0.30649
   506    H   32  px     Ryd( 2p)     0.00005       1.96984
   507    H   32  py     Ryd( 2p)     0.00025       2.43691
   508    H   32  pz     Ryd( 2p)     0.00011       2.14127

 WARNING:  Population inversion found on atom  C    3
           Population inversion found on atom  N    4
           Population inversion found on atom  N    6
           Population inversion found on atom  C    8
           Population inversion found on atom  N    9
           Population inversion found on atom  C   10
           Population inversion found on atom  C   11
           Population inversion found on atom  C   12
           Population inversion found on atom  C   13
           Population inversion found on atom  C   14
           Population inversion found on atom  C   15
           Population inversion found on atom  C   16
           Population inversion found on atom  C   17
           Population inversion found on atom  C   18
           Population inversion found on atom  H   20
           Population inversion found on atom  H   21
           Population inversion found on atom  H   22
           Population inversion found on atom  H   23
           Population inversion found on atom  H   24
           Population inversion found on atom  H   25
           Population inversion found on atom  H   26
           Population inversion found on atom  H   27
           Population inversion found on atom  H   28
           Population inversion found on atom  H   29
           Population inversion found on atom  H   30
           Population inversion found on atom  H   32


 Summary of Natural Population Analysis:                  
                                                          
                                       Natural Population 
                Natural  -----------------------------------------------
    Atom  No    Charge         Core      Valence    Rydberg      Total
 -----------------------------------------------------------------------
      C    1   -0.27950      0.99966     2.27521    0.00463     3.27950
      C    2   -0.22373      0.99960     2.21439    0.00974     3.22373
      C    3    0.31524      0.99963     1.66593    0.01920     2.68476
      N    4   -0.27405      0.99967     2.76560    0.00878     3.77405
      C    5    0.16542      0.99964     1.81692    0.01802     2.83458
      N    6   -0.07356      0.99966     2.56000    0.01390     3.57356
      O    7   -0.16267      0.99985     3.15458    0.00824     4.16267
      C    8   -0.09620      0.99957     2.08695    0.00968     3.09620
      N    9   -0.21298      0.99961     2.70362    0.00974     3.71298
      C   10    0.00042      0.99957     1.98953    0.01048     2.99958
      C   11   -0.13435      0.99953     2.12610    0.00871     3.13435
      C   12   -0.05795      0.99951     2.05050    0.00794     3.05795
      C   13    0.11332      0.99949     1.87677    0.01042     2.88668
      C   14   -0.13395      0.99954     2.12674    0.00767     3.13395
      C   15   -0.08058      0.99956     2.07216    0.00886     3.08058
      C   16   -0.08921      0.99950     2.08089    0.00882     3.08921
      C   17   -0.02449      0.99949     2.01639    0.00861     3.02449
      C   18    0.23705      0.99968     1.74264    0.02064     2.76295
      O   19   -0.26646      0.99988     3.25886    0.00771     4.26646
      H   20    0.09825      0.00000     0.40080    0.00095     0.40175
      H   21    0.10168      0.00000     0.39641    0.00192     0.39832
      H   22    0.10122      0.00000     0.39755    0.00123     0.39878
      H   23    0.11128      0.00000     0.38749    0.00123     0.38872
      H   24    0.11196      0.00000     0.38677    0.00128     0.38804
      H   25    0.10833      0.00000     0.39061    0.00105     0.39167
      H   26    0.10644      0.00000     0.39258    0.00097     0.39356
      H   27    0.09625      0.00000     0.40288    0.00087     0.40375
      H   28    0.10260      0.00000     0.39651    0.00089     0.39740
      H   29    0.10541      0.00000     0.39309    0.00150     0.39459
      H   30    0.09493      0.00000     0.40381    0.00126     0.40507
      H   31    0.10731      0.00000     0.39175    0.00094     0.39269
      H   32    0.03258      0.00000     0.46469    0.00273     0.46742
 =======================================================================
   * Total *    0.00002     18.99265    47.78873    0.21861    66.99998

                                 Natural Population      
 --------------------------------------------------------
   Core                      18.99265 ( 99.9613% of  19)
   Valence                   47.78873 ( 99.5599% of  48)
   Natural Minimal Basis     66.78137 ( 99.6737% of  67)
   Natural Rydberg Basis      0.21861 (  0.3263% of  67)
 --------------------------------------------------------

    Atom  No          Natural Electron Configuration
 ----------------------------------------------------------------------------
      C    1      [core]2S( 0.54)2p( 1.73)
      C    2      [core]2S( 0.52)2p( 1.70)
      C    3      [core]2S( 0.40)2p( 1.26)3d( 0.01)4p( 0.01)
      N    4      [core]2S( 0.71)2p( 2.06)
      C    5      [core]2S( 0.42)2p( 1.40)3p( 0.01)
      N    6      [core]2S( 0.75)2p( 1.81)4p( 0.01)
      O    7      [core]2S( 0.82)2p( 2.34)
      C    8      [core]2S( 0.49)2p( 1.59)3p( 0.01)
      N    9      [core]2S( 0.59)2p( 2.11)
      C   10      [core]2S( 0.46)2p( 1.53)4p( 0.01)
      C   11      [core]2S( 0.47)2p( 1.66)4p( 0.01)
      C   12      [core]2S( 0.44)2p( 1.62)4p( 0.01)
      C   13      [core]2S( 0.40)2p( 1.47)4p( 0.01)
      C   14      [core]2S( 0.47)2p( 1.66)
      C   15      [core]2S( 0.47)2p( 1.60)4p( 0.01)
      C   16      [core]2S( 0.46)2p( 1.63)4p( 0.01)
      C   17      [core]2S( 0.46)2p( 1.56)4p( 0.01)
      C   18      [core]2S( 0.44)2p( 1.30)3S( 0.01)3p( 0.01)
      O   19      [core]2S( 0.85)2p( 2.41)
      H   20            1S( 0.40)
      H   21            1S( 0.40)
      H   22            1S( 0.40)
      H   23            1S( 0.39)
      H   24            1S( 0.39)
      H   25            1S( 0.39)
      H   26            1S( 0.39)
      H   27            1S( 0.40)
      H   28            1S( 0.40)
      H   29            1S( 0.39)
      H   30            1S( 0.40)
      H   31            1S( 0.39)
      H   32            1S( 0.46)


 NBO analysis skipped by request.
 1\1\GINC-NODE220\SP\UB3LYP\6-311++G(d,p)\C14H13N3O2(1-,2)\VSC10255\13-
 Dec-2020\0\\# B3LYP/6-311++G(d,p) empiricaldispersion=gd3bj scf=xqc po
 p=npa geom=check\\CID_102910383_JID_9494_Energie_anion\\-1,2\C,0,0.968
 3287963,0.5536269418,-0.3076181487\C,0,0.234750976,0.617126708,-1.6584
 17925\C,0,0.9521858982,-0.1259279626,-2.7319133377\N,0,0.5733438274,-1
 .1861077435,-3.3890060218\C,0,1.647245191,-1.4175956067,-4.2204903395\
 N,0,2.6353747047,-0.568656295,-4.0978387971\O,0,2.1782396456,0.3050638
 315,-3.0937849288\C,0,1.6773886665,-2.5258748237,-5.2310005133\N,0,0.6
 829471344,-2.3336991607,-6.267863924\C,0,-0.5413881545,-2.9882163977,-
 6.3501391077\C,0,-1.2631632253,-2.4973563408,-7.4010251953\C,0,-0.4690
 660436,-1.4637124349,-8.011248448\C,0,0.74477225,-1.379533654,-7.26258
 95453\C,0,1.7544510133,-0.4563177765,-7.5610071837\C,0,1.5413881934,0.
 3824184063,-8.6443841453\C,0,0.355511993,0.3118875091,-9.4116704031\C,
 0,-0.650571268,-0.6067888878,-9.0975018546\C,0,0.1808073038,1.22783277
 67,-10.5520050127\O,0,-0.7945977246,1.262772401,-11.281242814\H,0,1.06
 83466629,-0.4815599923,0.0337692784\H,0,0.4085592085,1.1113389088,0.44
 89707986\H,0,1.9694100964,0.9876190728,-0.3853238817\H,0,-0.7659611652
 ,0.1845520544,-1.5823785666\H,0,0.1225172104,1.6621254152,-1.971664383
 5\H,0,2.6748976594,-2.5791173097,-5.6768006481\H,0,1.4715372708,-3.479
 3357936,-4.7376935656\H,0,-0.7817493772,-3.7606282381,-5.6332927558\H,
 0,-2.2428083548,-2.8298640311,-7.713231121\H,0,2.6541577973,-0.3830847
 714,-6.9593984668\H,0,2.2964169174,1.1173566812,-8.9124945098\H,0,-1.5
 499259749,-0.6277201447,-9.7050892387\H,0,1.0349328714,1.9230466581,-1
 0.7189952941\\Version=ES64L-G16RevA.03\State=2-A\HF=-856.2882539\S2=0.
 755026\S2-1=0.\S2A=0.750021\RMSD=3.183e-09\Dipole=0.9125437,-2.2301035
 ,1.5661164\Quadrupole=23.5443291,24.3909962,-47.9353253,2.9595124,-13.
 9508171,2.4111381\PG=C01 [X(C14H13N3O2)]\\@


 THE ENLIGHTENED ONE, BECAUSE HE SAW MANKIND DROWNING  
 IN THE GREAT SEA OF BIRTH, DEATH, AND SORROW, LONGED TO SAVE 
 THEM, FOR THIS HE WAS MOVED TO PITY.                         
 BECAUSE HE SAW MEN OF THE WORLD STRAYING IN FALSE PATHS, AND 
 NONE TO GUIDE THEM, FOR THIS HE WAS MOVED TO PITY.           
                     ..................                       
 BECAUSE HE SAW THE MEN OF THE WORLD PLOUGHING THEIR FIELDS,  
 SOWING THE SEED, TRAFFICKING, HUCKSTERING, BUYING, SELLING,  
 AND AT THE END WINNOWING NOTHING BUT BITTERNESS,             
 FOR THIS HE WAS MOVED TO PITY......                   
                   BUDAH'S PITY - UPSAKA SILA SUTRA           
 Job cpu time:       0 days  1 hours  2 minutes 27.2 seconds.
 Elapsed time:       0 days  0 hours 15 minutes 39.5 seconds.
 File lengths (MBytes):  RWF=    300 Int=      0 D2E=      0 Chk=     28 Scr=      8
 Normal termination of Gaussian 16 at Sun Dec 13 21:16:53 2020.
