 Entering Gaussian System, Link 0=g16
 Initial command:
 /apps/brussel/CO7/ivybridge-ib/software/Gaussian/G16.A.03-intel-2017b/g16/l1.exe "/scratch/brussel/102/vsc10255/3546946[3480].master01.hydra.brussel.vsc/Gau-42757.inp" -scrdir="/scratch/brussel/102/vsc10255/3546946[3480].master01.hydra.brussel.vsc/"
 Entering Link 1 = /apps/brussel/CO7/ivybridge-ib/software/Gaussian/G16.A.03-intel-2017b/g16/l1.exe.bin PID=     42758.
  
 Copyright (c) 1988,1990,1992,1993,1995,1998,2003,2009,2016,
            Gaussian, Inc.  All Rights Reserved.
  
 This is part of the Gaussian(R) 16 program.  It is based on
 the Gaussian(R) 09 system (copyright 2009, Gaussian, Inc.),
 the Gaussian(R) 03 system (copyright 2003, Gaussian, Inc.),
 the Gaussian(R) 98 system (copyright 1998, Gaussian, Inc.),
 the Gaussian(R) 94 system (copyright 1995, Gaussian, Inc.),
 the Gaussian 92(TM) system (copyright 1992, Gaussian, Inc.),
 the Gaussian 90(TM) system (copyright 1990, Gaussian, Inc.),
 the Gaussian 88(TM) system (copyright 1988, Gaussian, Inc.),
 the Gaussian 86(TM) system (copyright 1986, Carnegie Mellon
 University), and the Gaussian 82(TM) system (copyright 1983,
 Carnegie Mellon University). Gaussian is a federally registered
 trademark of Gaussian, Inc.
  
 This software contains proprietary and confidential information,
 including trade secrets, belonging to Gaussian, Inc.
  
 This software is provided under written license and may be
 used, copied, transmitted, or stored only in accord with that
 written license.
  
 The following legend is applicable only to US Government
 contracts under FAR:
  
                    RESTRICTED RIGHTS LEGEND
  
 Use, reproduction and disclosure by the US Government is
 subject to restrictions as set forth in subparagraphs (a)
 and (c) of the Commercial Computer Software - Restricted
 Rights clause in FAR 52.227-19.
  
 Gaussian, Inc.
 340 Quinnipiac St., Bldg. 40, Wallingford CT 06492
  
  
 ---------------------------------------------------------------
 Warning -- This program may not be used in any manner that
 competes with the business of Gaussian, Inc. or will provide
 assistance to any competitor of Gaussian, Inc.  The licensee
 of this program is prohibited from giving any competitor of
 Gaussian, Inc. access to this program.  By using this program,
 the user acknowledges that Gaussian, Inc. is engaged in the
 business of creating and licensing software in the field of
 computational chemistry and represents and warrants to the
 licensee that it is not a competitor of Gaussian, Inc. and that
 it will not use this program in any manner prohibited above.
 ---------------------------------------------------------------
  

 Cite this work as:
 Gaussian 16, Revision A.03,
 M. J. Frisch, G. W. Trucks, H. B. Schlegel, G. E. Scuseria, 
 M. A. Robb, J. R. Cheeseman, G. Scalmani, V. Barone, 
 G. A. Petersson, H. Nakatsuji, X. Li, M. Caricato, A. V. Marenich, 
 J. Bloino, B. G. Janesko, R. Gomperts, B. Mennucci, H. P. Hratchian, 
 J. V. Ortiz, A. F. Izmaylov, J. L. Sonnenberg, D. Williams-Young, 
 F. Ding, F. Lipparini, F. Egidi, J. Goings, B. Peng, A. Petrone, 
 T. Henderson, D. Ranasinghe, V. G. Zakrzewski, J. Gao, N. Rega, 
 G. Zheng, W. Liang, M. Hada, M. Ehara, K. Toyota, R. Fukuda, 
 J. Hasegawa, M. Ishida, T. Nakajima, Y. Honda, O. Kitao, H. Nakai, 
 T. Vreven, K. Throssell, J. A. Montgomery, Jr., J. E. Peralta, 
 F. Ogliaro, M. J. Bearpark, J. J. Heyd, E. N. Brothers, K. N. Kudin, 
 V. N. Staroverov, T. A. Keith, R. Kobayashi, J. Normand, 
 K. Raghavachari, A. P. Rendell, J. C. Burant, S. S. Iyengar, 
 J. Tomasi, M. Cossi, J. M. Millam, M. Klene, C. Adamo, R. Cammi, 
 J. W. Ochterski, R. L. Martin, K. Morokuma, O. Farkas, 
 J. B. Foresman, and D. J. Fox, Gaussian, Inc., Wallingford CT, 2016.
 
 ******************************************
 Gaussian 16:  ES64L-G16RevA.03 25-Dec-2016
                 9-Dec-2020 
 ******************************************
 %chk=JID_3480.chk
 %mem=8GB
 %nprocshared=4
 Will use up to    4 processors via shared memory.
 -----------------------------------------------------------
 # opt freq B3LYP/6-31G(d) empiricaldispersion=gd3bj scf=xqc
 -----------------------------------------------------------
 1/18=20,19=15,26=3,38=1/1,3;
 2/9=110,12=2,17=6,18=5,40=1/2;
 3/5=1,6=6,7=1,11=2,25=1,30=1,71=1,74=-5,124=41/1,2,3;
 4//1;
 5/5=2,8=3,13=1,38=5/2,8;
 6/7=2,8=2,9=2,10=2,28=1/1;
 7//1,2,3,16;
 1/18=20,19=15,26=3/3(2);
 2/9=110/2;
 99//99;
 2/9=110/2;
 3/5=1,6=6,7=1,11=2,25=1,30=1,71=1,74=-5,124=41/1,2,3;
 4/5=5,16=3,69=1/1;
 5/5=2,8=3,13=1,38=5/2,8;
 7//1,2,3,16;
 1/18=20,19=15,26=3/3(-5);
 2/9=110/2;
 6/7=2,8=2,9=2,10=2,19=2,28=1/1;
 99/9=1/99;
 ------------------------------
 CID_61623310_JID_3480_neutraal
 ------------------------------
 Symbolic Z-matrix:
 Charge =  0 Multiplicity = 1
 C                     1.367     0.701     0.001 
 C                     0.19538   1.42201  -0.05269 
 S                    -1.17513   0.40827  -0.08913 
 C                    -0.202    -0.99621  -0.03568 
 C                     1.15616  -0.72406   0.01134 
 C                     2.29206  -1.73618   0.07914 
 C                     2.24543  -2.70211   1.29066 
 N                     1.05717  -3.56078   1.41839 
 N                     2.52104  -2.44515  -1.18053 
 C                     1.62906  -2.94608  -2.07847 
 N                     2.27027  -3.5489   -3.05567 
 C                     3.57731  -3.40244  -2.70042 
 N                     3.78971  -2.72875  -1.56726 
 H                     2.34134   1.17685   0.02691 
 H                     0.07911   2.49722  -0.0741 
 H                    -0.68977  -1.96208  -0.04741 
 H                     3.21082  -1.14378   0.21509 
 H                     3.12403  -3.35814   1.25297 
 H                     2.33353  -2.11828   2.21538 
 H                     1.25413  -4.29478   2.10162 
 H                     0.29514  -3.01828   1.82858 
 H                     0.55781  -2.85635  -1.98789 
 H                     4.39856  -3.79942  -3.28324 
 

 GradGradGradGradGradGradGradGradGradGradGradGradGradGradGradGradGradGrad
 Berny optimization.
 Initialization pass.
                           ----------------------------
                           !    Initial Parameters    !
                           ! (Angstroms and Degrees)  !
 --------------------------                            --------------------------
 ! Name  Definition              Value          Derivative Info.                !
 --------------------------------------------------------------------------------
 ! R1    R(1,2)                  1.3767         estimate D2E/DX2                !
 ! R2    R(1,5)                  1.4406         estimate D2E/DX2                !
 ! R3    R(1,14)                 1.0846         estimate D2E/DX2                !
 ! R4    R(2,3)                  1.7051         estimate D2E/DX2                !
 ! R5    R(2,15)                 1.0817         estimate D2E/DX2                !
 ! R6    R(3,4)                  1.7095         estimate D2E/DX2                !
 ! R7    R(4,5)                  1.386          estimate D2E/DX2                !
 ! R8    R(4,16)                 1.0821         estimate D2E/DX2                !
 ! R9    R(5,6)                  1.5229         estimate D2E/DX2                !
 ! R10   R(6,7)                  1.5502         estimate D2E/DX2                !
 ! R11   R(6,9)                  1.4635         estimate D2E/DX2                !
 ! R12   R(6,17)                 1.1016         estimate D2E/DX2                !
 ! R13   R(7,8)                  1.4716         estimate D2E/DX2                !
 ! R14   R(7,18)                 1.0971         estimate D2E/DX2                !
 ! R15   R(7,19)                 1.0971         estimate D2E/DX2                !
 ! R16   R(8,20)                 1.0219         estimate D2E/DX2                !
 ! R17   R(8,21)                 1.0214         estimate D2E/DX2                !
 ! R18   R(9,10)                 1.3612         estimate D2E/DX2                !
 ! R19   R(9,13)                 1.3563         estimate D2E/DX2                !
 ! R20   R(10,11)                1.3151         estimate D2E/DX2                !
 ! R21   R(10,22)                1.0788         estimate D2E/DX2                !
 ! R22   R(11,12)                1.3624         estimate D2E/DX2                !
 ! R23   R(12,13)                1.3353         estimate D2E/DX2                !
 ! R24   R(12,23)                1.0825         estimate D2E/DX2                !
 ! A1    A(2,1,5)              113.1902         estimate D2E/DX2                !
 ! A2    A(2,1,14)             122.3872         estimate D2E/DX2                !
 ! A3    A(5,1,14)             124.4219         estimate D2E/DX2                !
 ! A4    A(1,2,3)              111.9311         estimate D2E/DX2                !
 ! A5    A(1,2,15)             127.7933         estimate D2E/DX2                !
 ! A6    A(3,2,15)             120.2755         estimate D2E/DX2                !
 ! A7    A(2,3,4)               91.7329         estimate D2E/DX2                !
 ! A8    A(3,4,5)              113.4261         estimate D2E/DX2                !
 ! A9    A(3,4,16)             118.4497         estimate D2E/DX2                !
 ! A10   A(5,4,16)             128.1232         estimate D2E/DX2                !
 ! A11   A(1,5,4)              109.7197         estimate D2E/DX2                !
 ! A12   A(1,5,6)              123.2697         estimate D2E/DX2                !
 ! A13   A(4,5,6)              127.0079         estimate D2E/DX2                !
 ! A14   A(5,6,7)              115.2444         estimate D2E/DX2                !
 ! A15   A(5,6,9)              113.599          estimate D2E/DX2                !
 ! A16   A(5,6,17)             105.6746         estimate D2E/DX2                !
 ! A17   A(7,6,9)              112.0579         estimate D2E/DX2                !
 ! A18   A(7,6,17)             105.2912         estimate D2E/DX2                !
 ! A19   A(9,6,17)             103.6648         estimate D2E/DX2                !
 ! A20   A(6,7,8)              117.1108         estimate D2E/DX2                !
 ! A21   A(6,7,18)             108.7628         estimate D2E/DX2                !
 ! A22   A(6,7,19)             108.9488         estimate D2E/DX2                !
 ! A23   A(8,7,18)             107.5            estimate D2E/DX2                !
 ! A24   A(8,7,19)             107.5887         estimate D2E/DX2                !
 ! A25   A(18,7,19)            106.4295         estimate D2E/DX2                !
 ! A26   A(7,8,20)             108.7536         estimate D2E/DX2                !
 ! A27   A(7,8,21)             109.1089         estimate D2E/DX2                !
 ! A28   A(20,8,21)            104.8792         estimate D2E/DX2                !
 ! A29   A(6,9,10)             130.0564         estimate D2E/DX2                !
 ! A30   A(6,9,13)             119.5428         estimate D2E/DX2                !
 ! A31   A(10,9,13)            110.3596         estimate D2E/DX2                !
 ! A32   A(9,10,11)            109.838          estimate D2E/DX2                !
 ! A33   A(9,10,22)            124.3816         estimate D2E/DX2                !
 ! A34   A(11,10,22)           125.7802         estimate D2E/DX2                !
 ! A35   A(10,11,12)           102.9876         estimate D2E/DX2                !
 ! A36   A(11,12,13)           115.3492         estimate D2E/DX2                !
 ! A37   A(11,12,23)           123.2339         estimate D2E/DX2                !
 ! A38   A(13,12,23)           121.4169         estimate D2E/DX2                !
 ! A39   A(9,13,12)            101.4598         estimate D2E/DX2                !
 ! D1    D(5,1,2,3)              0.0895         estimate D2E/DX2                !
 ! D2    D(5,1,2,15)          -179.7877         estimate D2E/DX2                !
 ! D3    D(14,1,2,3)           179.783          estimate D2E/DX2                !
 ! D4    D(14,1,2,15)           -0.0942         estimate D2E/DX2                !
 ! D5    D(2,1,5,4)             -0.0423         estimate D2E/DX2                !
 ! D6    D(2,1,5,6)           -179.4731         estimate D2E/DX2                !
 ! D7    D(14,1,5,4)          -179.7285         estimate D2E/DX2                !
 ! D8    D(14,1,5,6)             0.8407         estimate D2E/DX2                !
 ! D9    D(1,2,3,4)             -0.0865         estimate D2E/DX2                !
 ! D10   D(15,2,3,4)           179.8011         estimate D2E/DX2                !
 ! D11   D(2,3,4,5)              0.063          estimate D2E/DX2                !
 ! D12   D(2,3,4,16)          -179.6019         estimate D2E/DX2                !
 ! D13   D(3,4,5,1)             -0.0235         estimate D2E/DX2                !
 ! D14   D(3,4,5,6)            179.3805         estimate D2E/DX2                !
 ! D15   D(16,4,5,1)           179.602          estimate D2E/DX2                !
 ! D16   D(16,4,5,6)            -0.994          estimate D2E/DX2                !
 ! D17   D(1,5,6,7)            121.2611         estimate D2E/DX2                !
 ! D18   D(1,5,6,9)           -107.5094         estimate D2E/DX2                !
 ! D19   D(1,5,6,17)             5.4667         estimate D2E/DX2                !
 ! D20   D(4,5,6,7)            -58.0678         estimate D2E/DX2                !
 ! D21   D(4,5,6,9)             73.1616         estimate D2E/DX2                !
 ! D22   D(4,5,6,17)          -173.8622         estimate D2E/DX2                !
 ! D23   D(5,6,7,8)             59.8019         estimate D2E/DX2                !
 ! D24   D(5,6,7,18)          -178.1454         estimate D2E/DX2                !
 ! D25   D(5,6,7,19)           -62.5219         estimate D2E/DX2                !
 ! D26   D(9,6,7,8)            -72.1584         estimate D2E/DX2                !
 ! D27   D(9,6,7,18)            49.8943         estimate D2E/DX2                !
 ! D28   D(9,6,7,19)           165.5177         estimate D2E/DX2                !
 ! D29   D(17,6,7,8)           175.815          estimate D2E/DX2                !
 ! D30   D(17,6,7,18)          -62.1323         estimate D2E/DX2                !
 ! D31   D(17,6,7,19)           53.4912         estimate D2E/DX2                !
 ! D32   D(5,6,9,10)           -40.771          estimate D2E/DX2                !
 ! D33   D(5,6,9,13)           141.8072         estimate D2E/DX2                !
 ! D34   D(7,6,9,10)            92.0085         estimate D2E/DX2                !
 ! D35   D(7,6,9,13)           -85.4134         estimate D2E/DX2                !
 ! D36   D(17,6,9,10)         -154.9527         estimate D2E/DX2                !
 ! D37   D(17,6,9,13)           27.6255         estimate D2E/DX2                !
 ! D38   D(6,7,8,20)           165.9792         estimate D2E/DX2                !
 ! D39   D(6,7,8,21)           -80.1533         estimate D2E/DX2                !
 ! D40   D(18,7,8,20)           43.2743         estimate D2E/DX2                !
 ! D41   D(18,7,8,21)          157.1418         estimate D2E/DX2                !
 ! D42   D(19,7,8,20)          -70.9969         estimate D2E/DX2                !
 ! D43   D(19,7,8,21)           42.8706         estimate D2E/DX2                !
 ! D44   D(6,9,10,11)         -177.9454         estimate D2E/DX2                !
 ! D45   D(6,9,10,22)            1.9246         estimate D2E/DX2                !
 ! D46   D(13,9,10,11)          -0.3377         estimate D2E/DX2                !
 ! D47   D(13,9,10,22)         179.5323         estimate D2E/DX2                !
 ! D48   D(6,9,13,12)          177.7435         estimate D2E/DX2                !
 ! D49   D(10,9,13,12)          -0.1519         estimate D2E/DX2                !
 ! D50   D(9,10,11,12)           0.6523         estimate D2E/DX2                !
 ! D51   D(22,10,11,12)       -179.2154         estimate D2E/DX2                !
 ! D52   D(10,11,12,13)         -0.8096         estimate D2E/DX2                !
 ! D53   D(10,11,12,23)        179.0869         estimate D2E/DX2                !
 ! D54   D(11,12,13,9)           0.6015         estimate D2E/DX2                !
 ! D55   D(23,12,13,9)        -179.297          estimate D2E/DX2                !
 --------------------------------------------------------------------------------
 Trust Radius=3.00D-01 FncErr=1.00D-07 GrdErr=1.00D-06 EigMax=2.50D+02 EigMin=1.00D-04
 Number of steps in this run=    128 maximum allowed number of steps=    138.
 GradGradGradGradGradGradGradGradGradGradGradGradGradGradGradGradGradGrad

                          Input orientation:                          
 ---------------------------------------------------------------------
 Center     Atomic      Atomic             Coordinates (Angstroms)
 Number     Number       Type             X           Y           Z
 ---------------------------------------------------------------------
      1          6           0        1.367000    0.701000    0.001000
      2          6           0        0.195380    1.422010   -0.052690
      3         16           0       -1.175130    0.408270   -0.089130
      4          6           0       -0.202000   -0.996210   -0.035680
      5          6           0        1.156160   -0.724060    0.011340
      6          6           0        2.292060   -1.736180    0.079140
      7          6           0        2.245430   -2.702110    1.290660
      8          7           0        1.057170   -3.560780    1.418390
      9          7           0        2.521040   -2.445150   -1.180530
     10          6           0        1.629060   -2.946080   -2.078470
     11          7           0        2.270270   -3.548900   -3.055670
     12          6           0        3.577310   -3.402440   -2.700420
     13          7           0        3.789710   -2.728750   -1.567260
     14          1           0        2.341340    1.176850    0.026910
     15          1           0        0.079110    2.497220   -0.074100
     16          1           0       -0.689770   -1.962080   -0.047410
     17          1           0        3.210820   -1.143780    0.215090
     18          1           0        3.124030   -3.358140    1.252970
     19          1           0        2.333530   -2.118280    2.215380
     20          1           0        1.254130   -4.294780    2.101620
     21          1           0        0.295140   -3.018280    1.828580
     22          1           0        0.557810   -2.856350   -1.987890
     23          1           0        4.398560   -3.799420   -3.283240
 ---------------------------------------------------------------------
                    Distance matrix (angstroms):
                    1          2          3          4          5
     1  C    0.000000
     2  C    1.376747   0.000000
     3  S    2.560515   1.705079   0.000000
     4  C    2.311629   2.450712   1.709504   0.000000
     5  C    1.440610   2.352194   2.593680   1.385956   0.000000
     6  C    2.608005   3.793100   4.080244   2.604050   1.522909
     7  C    3.743798   4.797464   4.824781   3.264841   2.595352
     8  N    4.501973   5.266399   4.796784   3.205752   3.168054
     9  N    3.553320   4.651413   4.795293   3.290145   2.499120
    10  C    4.206431   5.023886   4.803397   3.365674   3.086797
    11  N    5.312323   6.167090   6.027465   4.663549   4.315960
    12  C    5.387148   6.459353   6.627672   5.212865   4.515454
    13  N    4.482427   5.695783   6.056022   4.613153   3.666926
    14  H    1.084640   2.161385   3.601353   3.345846   2.240168
    15  H    2.211494   1.081690   2.436607   3.504933   3.397644
    16  H    3.365210   3.497940   2.419891   1.082110   2.223421
    17  H    2.617006   3.968358   4.662399   3.425201   2.106966
    18  H    4.596869   5.756003   5.871103   4.278061   3.514617
    19  H    3.712950   4.716935   4.899481   3.571446   2.861441
    20  H    5.420624   6.200298   5.728819   4.191531   4.138709
    21  H    4.280418   4.823412   4.192917   2.794885   3.050764
    22  H    4.155143   4.709641   4.155251   2.801527   2.983556
    23  H    6.342741   7.440867   7.679389   6.290452   5.552050
                    6          7          8          9         10
     6  C    0.000000
     7  C    1.550153   0.000000
     8  N    2.578315   1.471595   0.000000
     9  N    1.463502   2.499754   3.184640   0.000000
    10  C    2.560997   3.433725   3.596240   1.361196   0.000000
    11  N    3.621251   4.428121   4.635619   2.190274   1.315090
    12  C    3.486294   4.265335   4.831229   2.083789   2.095415
    13  N    2.436962   3.248572   4.131967   1.356286   2.230914
    14  H    2.913915   4.080759   5.102004   3.822184   4.683857
    15  H    4.779362   5.795562   6.315338   5.622653   6.004112
    16  H    2.993051   3.309603   2.784997   3.438985   3.235805
    17  H    1.101608   2.125376   3.453698   2.029068   3.318233
    18  H    2.168134   1.097148   2.083348   2.668159   3.674673
    19  H    2.170539   1.097145   2.084489   3.416754   4.429298
    20  H    3.422595   2.043754   1.021936   3.974758   4.408256
    21  H    2.948222   2.047670   1.021397   3.786536   4.129116
    22  H    2.921475   3.690629   3.514018   2.162218   1.078811
    23  H    4.472125   5.173067   5.772968   3.127382   3.138438
                   11         12         13         14         15
    11  N    0.000000
    12  C    1.362353   0.000000
    13  N    2.279629   1.335299   0.000000
    14  H    5.642700   5.471366   4.460142   0.000000
    15  H    7.088477   7.344450   6.580945   2.621310   0.000000
    16  H    4.508821   5.226956   4.792021   4.364176   4.525179
    17  H    4.167386   3.706219   2.454387   2.485303   4.811249
    18  H    4.396553   3.979537   2.965292   4.762558   6.731857
    19  H    5.462110   5.230788   4.098963   3.955672   5.623786
    20  H    5.309098   5.408606   4.726764   5.951906   7.228118
    21  H    5.295148   5.606430   4.881350   5.003205   5.838459
    22  H    2.133612   3.150126   3.261654   4.848412   5.705476
    23  H    2.155033   1.082462   2.112255   6.320800   8.282747
                   16         17         18         19         20
    16  H    0.000000
    17  H    3.994136   0.000000
    18  H    4.264392   2.447063   0.000000
    19  H    3.779545   2.391746   1.757378   0.000000
    20  H    3.720022   4.161302   2.256995   2.432118   0.000000
    21  H    2.367476   3.823387   2.906794   2.261559   1.619773
    22  H    2.474194   3.850257   4.164187   4.622273   4.390676
    23  H    6.303770   4.549886   4.732479   6.109452   6.255361
                   21         22         23
    21  H    0.000000
    22  H    3.828924   0.000000
    23  H    6.601435   4.161571   0.000000
 Stoichiometry    C8H10N4S
 Framework group  C1[X(C8H10N4S)]
 Deg. of freedom    63
 Full point group                 C1      NOp   1
 Largest Abelian subgroup         C1      NOp   1
 Largest concise Abelian subgroup C1      NOp   1
                         Standard orientation:                         
 ---------------------------------------------------------------------
 Center     Atomic      Atomic             Coordinates (Angstroms)
 Number     Number       Type             X           Y           Z
 ---------------------------------------------------------------------
      1          6           0        1.768318   -0.579802    1.401873
      2          6           0        2.985927   -0.936462    0.867406
      3         16           0        3.115185   -0.493609   -0.774077
      4          6           0        1.541184    0.173412   -0.771766
      5          6           0        0.902502    0.074211    0.454252
      6          6           0       -0.492417    0.575082    0.804370
      7          6           0       -0.723972    2.092338    0.586901
      8          7           0       -0.542742    2.609402   -0.778892
      9          7           0       -1.567207   -0.233221    0.227039
     10          6           0       -1.672940   -0.796971   -1.007409
     11          7           0       -2.832581   -1.406567   -1.121807
     12          6           0       -3.421414   -1.173295    0.084372
     13          7           0       -2.689953   -0.468078    0.950777
     14          1           0        1.504485   -0.784347    2.433859
     15          1           0        3.806011   -1.438295    1.363067
     16          1           0        1.162715    0.604678   -1.689226
     17          1           0       -0.601846    0.417032    1.889075
     18          1           0       -1.744932    2.342164    0.901483
     19          1           0       -0.050051    2.653657    1.246050
     20          1           0       -0.945304    3.547248   -0.831260
     21          1           0        0.454310    2.741651   -0.956795
     22          1           0       -0.911414   -0.741864   -1.769559
     23          1           0       -4.412684   -1.526009    0.338732
 ---------------------------------------------------------------------
 Rotational constants (GHZ):           1.2161401           0.4519199           0.4072728
 Standard basis: 6-31G(d) (6D, 7F)
 There are   219 symmetry adapted cartesian basis functions of A   symmetry.
 There are   219 symmetry adapted basis functions of A   symmetry.
   219 basis functions,   428 primitive gaussians,   219 cartesian basis functions
    51 alpha electrons       51 beta electrons
       nuclear repulsion energy       867.1918814840 Hartrees.
 NAtoms=   23 NActive=   23 NUniq=   23 SFac= 1.00D+00 NAtFMM=   60 NAOKFM=F Big=F
 Integral buffers will be    131072 words long.
 Raffenetti 2 integral format.
 Two-electron integral symmetry is turned on.
 Nuclear repulsion after empirical dispersion term =      867.1445531889 Hartrees.
 One-electron integrals computed using PRISM.
 NBasis=   219 RedAO= T EigKep=  1.33D-03  NBF=   219
 NBsUse=   219 1.00D-06 EigRej= -1.00D+00 NBFU=   219
 ExpMin= 1.17D-01 ExpMax= 2.19D+04 ExpMxC= 3.30D+03 IAcc=3 IRadAn=         5 AccDes= 0.00D+00
 Harris functional with IExCor=  402 and IRadAn=       5 diagonalized for initial guess.
 HarFok:  IExCor=  402 AccDes= 0.00D+00 IRadAn=         5 IDoV= 1 UseB2=F ITyADJ=14
 ICtDFT=  3500011 ScaDFX=  1.000000  1.000000  1.000000  1.000000
 FoFCou: FMM=F IPFlag=           0 FMFlag=      100000 FMFlg1=           0
         NFxFlg=           0 DoJE=T BraDBF=F KetDBF=T FulRan=T
         wScrn=  0.000000 ICntrl=       500 IOpCl=  0 I1Cent=   200000004 NGrid=           0
         NMat0=    1 NMatS0=      1 NMatT0=    0 NMatD0=    1 NMtDS0=    0 NMtDT0=    0
 Petite list used in FoFCou.
 Keep R1 ints in memory in canonical form, NReq=295501481.
 Requested convergence on RMS density matrix=1.00D-08 within  32 cycles.
 Requested convergence on MAX density matrix=1.00D-06.
 Requested convergence on             energy=1.00D-06.
 No special actions if energy rises.
 Integral accuracy reduced to 1.0D-05 until final iterations.
 Initial convergence to 1.0D-05 achieved.  Increase integral accuracy.
 SCF Done:  E(RB3LYP) =  -928.065819220     A.U. after   15 cycles
            NFock= 15  Conv=0.49D-08     -V/T= 2.0069
 QCSCF skips out because SCF is already converged.

 **********************************************************************

            Population analysis using the SCF density.

 **********************************************************************

 Orbital symmetries:
       Occupied  (A) (A) (A) (A) (A) (A) (A) (A) (A) (A) (A) (A)
                 (A) (A) (A) (A) (A) (A) (A) (A) (A) (A) (A) (A)
                 (A) (A) (A) (A) (A) (A) (A) (A) (A) (A) (A) (A)
                 (A) (A) (A) (A) (A) (A) (A) (A) (A) (A) (A) (A)
                 (A) (A) (A)
       Virtual   (A) (A) (A) (A) (A) (A) (A) (A) (A) (A) (A) (A)
                 (A) (A) (A) (A) (A) (A) (A) (A) (A) (A) (A) (A)
                 (A) (A) (A) (A) (A) (A) (A) (A) (A) (A) (A) (A)
                 (A) (A) (A) (A) (A) (A) (A) (A) (A) (A) (A) (A)
                 (A) (A) (A) (A) (A) (A) (A) (A) (A) (A) (A) (A)
                 (A) (A) (A) (A) (A) (A) (A) (A) (A) (A) (A) (A)
                 (A) (A) (A) (A) (A) (A) (A) (A) (A) (A) (A) (A)
                 (A) (A) (A) (A) (A) (A) (A) (A) (A) (A) (A) (A)
                 (A) (A) (A) (A) (A) (A) (A) (A) (A) (A) (A) (A)
                 (A) (A) (A) (A) (A) (A) (A) (A) (A) (A) (A) (A)
                 (A) (A) (A) (A) (A) (A) (A) (A) (A) (A) (A) (A)
                 (A) (A) (A) (A) (A) (A) (A) (A) (A) (A) (A) (A)
                 (A) (A) (A) (A) (A) (A) (A) (A) (A) (A) (A) (A)
                 (A) (A) (A) (A) (A) (A) (A) (A) (A) (A) (A) (A)
 The electronic state is 1-A.
 Alpha  occ. eigenvalues --  -88.92207 -14.41298 -14.34946 -14.32671 -14.31269
 Alpha  occ. eigenvalues --  -10.25422 -10.24239 -10.22608 -10.22537 -10.22438
 Alpha  occ. eigenvalues --  -10.22278 -10.21788 -10.20644  -7.98411  -5.94795
 Alpha  occ. eigenvalues --   -5.94417  -5.94147  -1.06656  -0.91025  -0.89123
 Alpha  occ. eigenvalues --   -0.88486  -0.83220  -0.76996  -0.73759  -0.71941
 Alpha  occ. eigenvalues --   -0.64530  -0.61435  -0.59193  -0.57656  -0.56114
 Alpha  occ. eigenvalues --   -0.53909  -0.49990  -0.48385  -0.47835  -0.45764
 Alpha  occ. eigenvalues --   -0.43177  -0.41981  -0.41625  -0.41268  -0.40787
 Alpha  occ. eigenvalues --   -0.38905  -0.38292  -0.36788  -0.35276  -0.31938
 Alpha  occ. eigenvalues --   -0.28120  -0.26616  -0.26398  -0.25296  -0.24739
 Alpha  occ. eigenvalues --   -0.24445
 Alpha virt. eigenvalues --   -0.02681   0.01484   0.02404   0.04265   0.06006
 Alpha virt. eigenvalues --    0.06874   0.09579   0.09936   0.11004   0.12932
 Alpha virt. eigenvalues --    0.13680   0.15226   0.15785   0.16835   0.17158
 Alpha virt. eigenvalues --    0.18212   0.20302   0.21062   0.22247   0.23816
 Alpha virt. eigenvalues --    0.24500   0.25408   0.28472   0.29947   0.31703
 Alpha virt. eigenvalues --    0.32913   0.33907   0.35756   0.39064   0.42209
 Alpha virt. eigenvalues --    0.42482   0.45333   0.48031   0.49584   0.50849
 Alpha virt. eigenvalues --    0.51563   0.53950   0.55028   0.55908   0.57598
 Alpha virt. eigenvalues --    0.57860   0.59188   0.60788   0.61491   0.62293
 Alpha virt. eigenvalues --    0.65143   0.66288   0.68212   0.69577   0.70549
 Alpha virt. eigenvalues --    0.71683   0.72996   0.74325   0.75715   0.77684
 Alpha virt. eigenvalues --    0.78283   0.78956   0.80370   0.80637   0.81752
 Alpha virt. eigenvalues --    0.82562   0.83115   0.83497   0.84051   0.84779
 Alpha virt. eigenvalues --    0.87307   0.88176   0.88587   0.91301   0.91915
 Alpha virt. eigenvalues --    0.92194   0.94650   0.94992   0.95455   0.97168
 Alpha virt. eigenvalues --    0.98071   1.00477   1.01483   1.03587   1.04374
 Alpha virt. eigenvalues --    1.06506   1.08135   1.11849   1.14732   1.19084
 Alpha virt. eigenvalues --    1.22584   1.25653   1.29329   1.31769   1.34049
 Alpha virt. eigenvalues --    1.36681   1.38446   1.38716   1.43049   1.44777
 Alpha virt. eigenvalues --    1.46267   1.48311   1.50533   1.55293   1.57271
 Alpha virt. eigenvalues --    1.59672   1.61720   1.64390   1.65879   1.72591
 Alpha virt. eigenvalues --    1.76122   1.76573   1.80460   1.81776   1.84430
 Alpha virt. eigenvalues --    1.86829   1.87745   1.92249   1.94374   1.94694
 Alpha virt. eigenvalues --    1.98702   2.00761   2.02779   2.05546   2.06564
 Alpha virt. eigenvalues --    2.12325   2.14418   2.19123   2.19866   2.22121
 Alpha virt. eigenvalues --    2.23211   2.23762   2.26069   2.27172   2.27594
 Alpha virt. eigenvalues --    2.29613   2.33073   2.34705   2.38174   2.39134
 Alpha virt. eigenvalues --    2.41993   2.42422   2.44796   2.47119   2.48263
 Alpha virt. eigenvalues --    2.53270   2.57808   2.62716   2.65705   2.67626
 Alpha virt. eigenvalues --    2.69194   2.71926   2.73362   2.78412   2.84685
 Alpha virt. eigenvalues --    2.94182   2.98330   3.01473   3.06827   3.15306
 Alpha virt. eigenvalues --    3.74343   3.76513   3.93793   3.99250   4.00797
 Alpha virt. eigenvalues --    4.09900   4.14881   4.22634   4.25104   4.31024
 Alpha virt. eigenvalues --    4.40313   4.51361   4.59969
          Condensed to atoms (all electrons):
               1          2          3          4          5          6
     1  C    4.889319   0.561728  -0.086385  -0.066421   0.527431  -0.040810
     2  C    0.561728   5.243696   0.327930  -0.075141  -0.028634   0.007458
     3  S   -0.086385   0.327930  15.287854   0.312968  -0.066636   0.006462
     4  C   -0.066421  -0.075141   0.312968   5.396608   0.550847  -0.066074
     5  C    0.527431  -0.028634  -0.066636   0.550847   4.708673   0.336951
     6  C   -0.040810   0.007458   0.006462  -0.066074   0.336951   5.089192
     7  C    0.002549  -0.000250   0.000046  -0.006826  -0.034125   0.320452
     8  N    0.000030   0.000006   0.000177  -0.002315  -0.008127  -0.049899
     9  N    0.001921  -0.000137   0.000124  -0.005529  -0.048080   0.241163
    10  C    0.000192  -0.000052   0.000014   0.000233   0.002043  -0.043552
    11  N   -0.000010  -0.000000  -0.000002   0.000067   0.000145   0.006479
    12  C   -0.000003   0.000000   0.000000  -0.000015  -0.000459   0.009026
    13  N   -0.000069   0.000000   0.000004  -0.000012   0.003693  -0.052903
    14  H    0.358596  -0.050117   0.006898   0.007687  -0.039074  -0.006364
    15  H   -0.018801   0.358843  -0.039301   0.003085   0.003483  -0.000094
    16  H    0.005481   0.002608  -0.038719   0.347741  -0.020634  -0.004386
    17  H   -0.008146   0.000136  -0.000216   0.006652  -0.038916   0.354435
    18  H   -0.000098   0.000002   0.000006   0.000115   0.004746  -0.027550
    19  H    0.000452  -0.000038   0.000027   0.000614  -0.004244  -0.045491
    20  H   -0.000001  -0.000000  -0.000005  -0.000000   0.000082   0.005293
    21  H   -0.000074  -0.000018  -0.000073   0.005298   0.004732  -0.002848
    22  H    0.000029  -0.000050   0.000210   0.004008   0.000783   0.001365
    23  H    0.000000   0.000000  -0.000000   0.000000   0.000005  -0.000124
               7          8          9         10         11         12
     1  C    0.002549   0.000030   0.001921   0.000192  -0.000010  -0.000003
     2  C   -0.000250   0.000006  -0.000137  -0.000052  -0.000000   0.000000
     3  S    0.000046   0.000177   0.000124   0.000014  -0.000002   0.000000
     4  C   -0.006826  -0.002315  -0.005529   0.000233   0.000067  -0.000015
     5  C   -0.034125  -0.008127  -0.048080   0.002043   0.000145  -0.000459
     6  C    0.320452  -0.049899   0.241163  -0.043552   0.006479   0.009026
     7  C    4.992592   0.303100  -0.055747  -0.001245  -0.000120   0.000170
     8  N    0.303100   6.936557   0.001396   0.004895  -0.000068   0.000021
     9  N   -0.055747   0.001396   6.737569   0.370014  -0.072820  -0.107591
    10  C   -0.001245   0.004895   0.370014   4.748144   0.510306  -0.116193
    11  N   -0.000120  -0.000068  -0.072820   0.510306   6.682668   0.454549
    12  C    0.000170   0.000021  -0.107591  -0.116193   0.454549   4.764729
    13  N   -0.001616   0.000012   0.268041  -0.095818  -0.059160   0.447445
    14  H    0.000097   0.000001   0.000099   0.000025   0.000000  -0.000000
    15  H    0.000002   0.000000   0.000001   0.000000  -0.000000   0.000000
    16  H    0.000172   0.007312   0.000441  -0.000292   0.000014   0.000000
    17  H   -0.039347   0.003353  -0.042322   0.005013  -0.000157  -0.000102
    18  H    0.368537  -0.036595  -0.005138   0.000124   0.000006  -0.000013
    19  H    0.366302  -0.052457   0.004967   0.000108   0.000001   0.000002
    20  H   -0.031216   0.312687  -0.000096  -0.000080   0.000002   0.000000
    21  H   -0.035749   0.299353  -0.000019  -0.000111   0.000000   0.000000
    22  H    0.000183   0.000295  -0.047113   0.371266  -0.035524   0.006243
    23  H    0.000006  -0.000000   0.006034   0.006560  -0.045587   0.386184
              13         14         15         16         17         18
     1  C   -0.000069   0.358596  -0.018801   0.005481  -0.008146  -0.000098
     2  C    0.000000  -0.050117   0.358843   0.002608   0.000136   0.000002
     3  S    0.000004   0.006898  -0.039301  -0.038719  -0.000216   0.000006
     4  C   -0.000012   0.007687   0.003085   0.347741   0.006652   0.000115
     5  C    0.003693  -0.039074   0.003483  -0.020634  -0.038916   0.004746
     6  C   -0.052903  -0.006364  -0.000094  -0.004386   0.354435  -0.027550
     7  C   -0.001616   0.000097   0.000002   0.000172  -0.039347   0.368537
     8  N    0.000012   0.000001   0.000000   0.007312   0.003353  -0.036595
     9  N    0.268041   0.000099   0.000001   0.000441  -0.042322  -0.005138
    10  C   -0.095818   0.000025   0.000000  -0.000292   0.005013   0.000124
    11  N   -0.059160   0.000000  -0.000000   0.000014  -0.000157   0.000006
    12  C    0.447445  -0.000000   0.000000   0.000000  -0.000102  -0.000013
    13  N    6.803942  -0.000013  -0.000000  -0.000008   0.006772   0.005298
    14  H   -0.000013   0.571724  -0.003361  -0.000115   0.004863  -0.000002
    15  H   -0.000000  -0.003361   0.514640  -0.000074  -0.000008  -0.000000
    16  H   -0.000008  -0.000115  -0.000074   0.505758   0.000026  -0.000038
    17  H    0.006772   0.004863  -0.000008   0.000026   0.573972  -0.001703
    18  H    0.005298  -0.000002  -0.000000  -0.000038  -0.001703   0.562695
    19  H   -0.000032   0.000003  -0.000000   0.000355   0.001007  -0.037792
    20  H   -0.000007  -0.000000  -0.000000  -0.000047  -0.000179  -0.007323
    21  H   -0.000004  -0.000001  -0.000000  -0.001055  -0.000190   0.006419
    22  H    0.003530  -0.000002  -0.000000   0.001811  -0.000155  -0.000050
    23  H   -0.053766  -0.000000  -0.000000  -0.000000  -0.000022   0.000003
              19         20         21         22         23
     1  C    0.000452  -0.000001  -0.000074   0.000029   0.000000
     2  C   -0.000038  -0.000000  -0.000018  -0.000050   0.000000
     3  S    0.000027  -0.000005  -0.000073   0.000210  -0.000000
     4  C    0.000614  -0.000000   0.005298   0.004008   0.000000
     5  C   -0.004244   0.000082   0.004732   0.000783   0.000005
     6  C   -0.045491   0.005293  -0.002848   0.001365  -0.000124
     7  C    0.366302  -0.031216  -0.035749   0.000183   0.000006
     8  N   -0.052457   0.312687   0.299353   0.000295  -0.000000
     9  N    0.004967  -0.000096  -0.000019  -0.047113   0.006034
    10  C    0.000108  -0.000080  -0.000111   0.371266   0.006560
    11  N    0.000001   0.000002   0.000000  -0.035524  -0.045587
    12  C    0.000002   0.000000   0.000000   0.006243   0.386184
    13  N   -0.000032  -0.000007  -0.000004   0.003530  -0.053766
    14  H    0.000003  -0.000000  -0.000001  -0.000002  -0.000000
    15  H   -0.000000  -0.000000  -0.000000  -0.000000  -0.000000
    16  H    0.000355  -0.000047  -0.001055   0.001811  -0.000000
    17  H    0.001007  -0.000179  -0.000190  -0.000155  -0.000022
    18  H   -0.037792  -0.007323   0.006419  -0.000050   0.000003
    19  H    0.643956  -0.000470  -0.009240   0.000007  -0.000000
    20  H   -0.000470   0.447022  -0.032683   0.000003   0.000000
    21  H   -0.009240  -0.032683   0.467291  -0.000076  -0.000000
    22  H    0.000007   0.000003  -0.000076   0.522554  -0.000147
    23  H   -0.000000   0.000000  -0.000000  -0.000147   0.548287
 Mulliken charges:
               1
     1  C   -0.126909
     2  C   -0.347970
     3  S    0.288617
     4  C   -0.413591
     5  C    0.145314
     6  C   -0.038179
     7  C   -0.147967
     8  N   -0.719735
     9  N   -0.247181
    10  C    0.238407
    11  N   -0.440788
    12  C    0.156008
    13  N   -0.275329
    14  H    0.149056
    15  H    0.181586
    16  H    0.193651
    17  H    0.175235
    18  H    0.168350
    19  H    0.131964
    20  H    0.307016
    21  H    0.299048
    22  H    0.170832
    23  H    0.152565
 Sum of Mulliken charges =  -0.00000
 Mulliken charges with hydrogens summed into heavy atoms:
               1
     1  C    0.022146
     2  C   -0.166384
     3  S    0.288617
     4  C   -0.219940
     5  C    0.145314
     6  C    0.137056
     7  C    0.152346
     8  N   -0.113671
     9  N   -0.247181
    10  C    0.409239
    11  N   -0.440788
    12  C    0.308573
    13  N   -0.275329
 Electronic spatial extent (au):  <R**2>=           2843.8618
 Charge=             -0.0000 electrons
 Dipole moment (field-independent basis, Debye):
    X=              3.5055    Y=              2.7252    Z=              1.3665  Tot=              4.6457
 Quadrupole moment (field-independent basis, Debye-Ang):
   XX=            -85.9934   YY=            -77.2586   ZZ=            -82.9841
   XY=             -5.2834   XZ=             -1.8792   YZ=             -3.3975
 Traceless Quadrupole moment (field-independent basis, Debye-Ang):
   XX=             -3.9147   YY=              4.8201   ZZ=             -0.9054
   XY=             -5.2834   XZ=             -1.8792   YZ=             -3.3975
 Octapole moment (field-independent basis, Debye-Ang**2):
  XXX=             14.0764  YYY=             47.1543  ZZZ=              1.7215  XYY=              0.8801
  XXY=             -5.5094  XXZ=             17.8472  XZZ=             21.0861  YZZ=              3.7475
  YYZ=              3.7158  XYZ=             -0.0551
 Hexadecapole moment (field-independent basis, Debye-Ang**3):
 XXXX=          -2395.7903 YYYY=           -677.0072 ZZZZ=           -470.9140 XXXY=            -42.5761
 XXXZ=            -11.2593 YYYX=            -39.0061 YYYZ=            -37.9573 ZZZX=             -8.5258
 ZZZY=            -14.0351 XXYY=           -540.9317 XXZZ=           -546.1313 YYZZ=           -222.3113
 XXYZ=            -53.8704 YYXZ=            -18.7959 ZZXY=            -20.2243
 N-N= 8.671445531889D+02 E-N=-3.910547088595D+03  KE= 9.216799758041D+02
 Calling FoFJK, ICntrl=      2127 FMM=F ISym2X=0 I1Cent= 0 IOpClX= 0 NMat=1 NMatS=1 NMatT=0.
 ***** Axes restored to original set *****
 -------------------------------------------------------------------
 Center     Atomic                   Forces (Hartrees/Bohr)
 Number     Number              X              Y              Z
 -------------------------------------------------------------------
      1        6          -0.004618012   -0.000194762   -0.000691096
      2        6           0.016247849    0.005232856    0.000890423
      3       16          -0.011827891   -0.000291740   -0.001006187
      4        6           0.009297361   -0.014941322    0.001437640
      5        6          -0.009882305    0.002494112   -0.001204955
      6        6           0.003597859    0.006453169    0.008162752
      7        6          -0.003806961   -0.004951903    0.013317368
      8        7          -0.004848658    0.000851507   -0.008253602
      9        7          -0.015473169    0.003463587    0.001862893
     10        6           0.004075993    0.004014122    0.008692905
     11        7           0.005713736   -0.006022447   -0.006313607
     12        6           0.004372719    0.002584985    0.003685104
     13        7          -0.003989588   -0.007352337   -0.008594706
     14        1           0.000834874   -0.001699724    0.000020396
     15        1           0.000819090   -0.000159876    0.000177393
     16        1           0.002546383   -0.001082848    0.000343079
     17        1          -0.002993279   -0.004619643   -0.000164680
     18        1          -0.000630655    0.002570654   -0.004726752
     19        1           0.007788916    0.009576721   -0.002613841
     20        1           0.000742703    0.001242620   -0.004676265
     21        1           0.001895340   -0.000026882   -0.002045119
     22        1           0.000692887    0.001807093    0.001831399
     23        1          -0.000555191    0.001052058   -0.000130542
 -------------------------------------------------------------------
 Cartesian Forces:  Max     0.016247849 RMS     0.005683006

 GradGradGradGradGradGradGradGradGradGradGradGradGradGradGradGradGradGrad
 Berny optimization.
 FormGI is forming the generalized inverse of G from B-inverse, IUseBI=4.
 Internal  Forces:  Max     0.021360923 RMS     0.004487169
 Search for a local minimum.
 Step number   1 out of a maximum of  128
 All quantities printed in internal units (Hartrees-Bohrs-Radians)
 Mixed Optimization -- RFO/linear search
 Second derivative matrix not updated -- first step.
 ITU=  0
     Eigenvalues ---    0.00230   0.00463   0.00745   0.00852   0.01239
     Eigenvalues ---    0.01490   0.01790   0.01902   0.02051   0.02100
     Eigenvalues ---    0.02137   0.02193   0.02352   0.02396   0.02475
     Eigenvalues ---    0.03400   0.03627   0.04631   0.05268   0.05332
     Eigenvalues ---    0.06747   0.10109   0.13300   0.16000   0.16000
     Eigenvalues ---    0.16000   0.16000   0.16000   0.16000   0.16000
     Eigenvalues ---    0.18907   0.19903   0.22028   0.22481   0.23137
     Eigenvalues ---    0.23495   0.23977   0.24980   0.24998   0.27638
     Eigenvalues ---    0.30088   0.33505   0.33544   0.33999   0.34000
     Eigenvalues ---    0.34257   0.35440   0.35550   0.35698   0.35741
     Eigenvalues ---    0.35791   0.36138   0.36529   0.38625   0.44031
     Eigenvalues ---    0.44116   0.45296   0.45646   0.48661   0.50570
     Eigenvalues ---    0.52827   0.56012   0.61449
 RFO step:  Lambda=-1.19560834D-02 EMin= 2.30000000D-03
 Linear search not attempted -- first point.
 Iteration  1 RMS(Cart)=  0.09491260 RMS(Int)=  0.00324585
 Iteration  2 RMS(Cart)=  0.00497998 RMS(Int)=  0.00092806
 Iteration  3 RMS(Cart)=  0.00001266 RMS(Int)=  0.00092803
 Iteration  4 RMS(Cart)=  0.00000005 RMS(Int)=  0.00092803
 Variable       Old X    -DE/DX   Delta X   Delta X   Delta X     New X
                                 (Linear)    (Quad)   (Total)
    R1        2.60167  -0.00785   0.00000  -0.01588  -0.01590   2.58577
    R2        2.72236  -0.00521   0.00000  -0.01438  -0.01431   2.70805
    R3        2.04967   0.00000   0.00000   0.00001   0.00001   2.04968
    R4        3.22213   0.01351   0.00000   0.03833   0.03824   3.26037
    R5        2.04410  -0.00025   0.00000  -0.00068  -0.00068   2.04342
    R6        3.23049   0.00801   0.00000   0.02351   0.02350   3.25399
    R7        2.61908  -0.00861   0.00000  -0.01798  -0.01791   2.60117
    R8        2.04489  -0.00018   0.00000  -0.00050  -0.00050   2.04439
    R9        2.87788  -0.00962   0.00000  -0.03075  -0.03075   2.84713
   R10        2.92937  -0.01284   0.00000  -0.04453  -0.04453   2.88484
   R11        2.76562  -0.00148   0.00000  -0.00392  -0.00392   2.76170
   R12        2.08174  -0.00500   0.00000  -0.01441  -0.01441   2.06733
   R13        2.78091  -0.00072   0.00000  -0.00197  -0.00197   2.77895
   R14        2.07331  -0.00188   0.00000  -0.00534  -0.00534   2.06797
   R15        2.07330   0.00352   0.00000   0.01000   0.01000   2.08330
   R16        1.93118  -0.00388   0.00000  -0.00857  -0.00857   1.92261
   R17        1.93016  -0.00225   0.00000  -0.00497  -0.00497   1.92519
   R18        2.57229  -0.00797   0.00000  -0.01453  -0.01449   2.55780
   R19        2.56301   0.00286   0.00000   0.00454   0.00457   2.56758
   R20        2.48516   0.01054   0.00000   0.01709   0.01709   2.50225
   R21        2.03866  -0.00038   0.00000  -0.00103  -0.00103   2.03763
   R22        2.57447  -0.00149   0.00000  -0.00256  -0.00261   2.57187
   R23        2.52335  -0.00668   0.00000  -0.01182  -0.01185   2.51150
   R24        2.04556  -0.00074   0.00000  -0.00200  -0.00200   2.04356
    A1        1.97554  -0.00002   0.00000  -0.00307  -0.00303   1.97251
    A2        2.13606   0.00195   0.00000   0.01282   0.01280   2.14886
    A3        2.17157  -0.00193   0.00000  -0.00974  -0.00976   2.16181
    A4        1.95357  -0.00244   0.00000  -0.00899  -0.00911   1.94446
    A5        2.23041   0.00040   0.00000  -0.00027  -0.00022   2.23020
    A6        2.09920   0.00204   0.00000   0.00926   0.00931   2.10851
    A7        1.60104  -0.00102   0.00000   0.00349   0.00328   1.60432
    A8        1.97966  -0.00648   0.00000  -0.02663  -0.02656   1.95309
    A9        2.06734   0.00607   0.00000   0.02979   0.02975   2.09709
   A10        2.23617   0.00040   0.00000  -0.00318  -0.00322   2.23296
   A11        1.91497   0.00996   0.00000   0.03522   0.03536   1.95033
   A12        2.15146  -0.00244   0.00000  -0.00791  -0.00798   2.14348
   A13        2.21671  -0.00753   0.00000  -0.02736  -0.02744   2.18927
   A14        2.01139  -0.00300   0.00000  -0.03192  -0.03361   1.97779
   A15        1.98268  -0.00010   0.00000  -0.02214  -0.02430   1.95838
   A16        1.84437   0.00306   0.00000   0.05172   0.05226   1.89663
   A17        1.95578  -0.00069   0.00000  -0.02662  -0.02848   1.92730
   A18        1.83768   0.00112   0.00000   0.02504   0.02570   1.86338
   A19        1.80929   0.00046   0.00000   0.02184   0.02237   1.83166
   A20        2.04397  -0.02136   0.00000  -0.09717  -0.09727   1.94670
   A21        1.89827   0.00214   0.00000  -0.03007  -0.03143   1.86684
   A22        1.90151  -0.00200   0.00000  -0.02544  -0.02223   1.87929
   A23        1.87623   0.00768   0.00000   0.02329   0.01771   1.89394
   A24        1.87778   0.01640   0.00000   0.12169   0.12039   1.99816
   A25        1.85755  -0.00118   0.00000   0.01896   0.01572   1.87327
   A26        1.89811  -0.00015   0.00000   0.00383   0.00381   1.90191
   A27        1.90431  -0.00112   0.00000  -0.00185  -0.00187   1.90244
   A28        1.83049   0.00187   0.00000   0.02139   0.02135   1.85184
   A29        2.26991   0.00409   0.00000   0.01564   0.01550   2.28542
   A30        2.08642   0.00034   0.00000   0.00134   0.00122   2.08764
   A31        1.92614  -0.00445   0.00000  -0.01797  -0.01805   1.90809
   A32        1.91704   0.00177   0.00000   0.01014   0.01013   1.92717
   A33        2.17087  -0.00349   0.00000  -0.02023  -0.02023   2.15064
   A34        2.19528   0.00172   0.00000   0.01009   0.01009   2.20537
   A35        1.79747  -0.00167   0.00000  -0.00292  -0.00304   1.79444
   A36        2.01322  -0.00227   0.00000  -0.01048  -0.01057   2.00265
   A37        2.15084   0.00107   0.00000   0.00488   0.00493   2.15576
   A38        2.11912   0.00120   0.00000   0.00559   0.00564   2.12476
   A39        1.77081   0.00664   0.00000   0.02154   0.02149   1.79230
    D1        0.00156  -0.00021   0.00000  -0.00685  -0.00688  -0.00532
    D2       -3.13789  -0.00007   0.00000  -0.00242  -0.00243  -3.14031
    D3        3.13780  -0.00014   0.00000  -0.00421  -0.00420   3.13360
    D4       -0.00164  -0.00000   0.00000   0.00022   0.00025  -0.00140
    D5       -0.00074  -0.00004   0.00000  -0.00121  -0.00127  -0.00200
    D6       -3.13240   0.00012   0.00000   0.00376   0.00382  -3.12857
    D7       -3.13685  -0.00012   0.00000  -0.00400  -0.00404  -3.14090
    D8        0.01467   0.00004   0.00000   0.00097   0.00104   0.01572
    D9       -0.00151   0.00031   0.00000   0.01000   0.01007   0.00856
   D10        3.13812   0.00018   0.00000   0.00594   0.00596  -3.13910
   D11        0.00110  -0.00034   0.00000  -0.01096  -0.01087  -0.00977
   D12       -3.13464  -0.00021   0.00000  -0.00756  -0.00743   3.14111
   D13       -0.00041   0.00027   0.00000   0.00880   0.00885   0.00844
   D14        3.13078   0.00014   0.00000   0.00375   0.00376   3.13454
   D15        3.13465   0.00015   0.00000   0.00512   0.00520   3.13985
   D16       -0.01735   0.00002   0.00000   0.00008   0.00011  -0.01724
   D17        2.11641   0.00229   0.00000   0.06656   0.06619   2.18259
   D18       -1.87639  -0.00182   0.00000  -0.02710  -0.02672  -1.90312
   D19        0.09541   0.00050   0.00000   0.01888   0.01896   0.11437
   D20       -1.01347   0.00237   0.00000   0.07203   0.07160  -0.94187
   D21        1.27691  -0.00173   0.00000  -0.02163  -0.02131   1.25560
   D22       -3.03447   0.00059   0.00000   0.02435   0.02437  -3.01010
   D23        1.04374   0.00016   0.00000  -0.02972  -0.02987   1.01387
   D24       -3.10922  -0.00324   0.00000  -0.09328  -0.09173   3.08223
   D25       -1.09121  -0.00456   0.00000  -0.10088  -0.10103  -1.19225
   D26       -1.25940   0.00390   0.00000   0.06033   0.05933  -1.20007
   D27        0.87082   0.00049   0.00000  -0.00323  -0.00253   0.86829
   D28        2.88883  -0.00083   0.00000  -0.01083  -0.01183   2.87700
   D29        3.06855   0.00306   0.00000   0.03321   0.03267   3.10122
   D30       -1.08441  -0.00035   0.00000  -0.03035  -0.02919  -1.11361
   D31        0.93360  -0.00166   0.00000  -0.03794  -0.03849   0.89510
   D32       -0.71159   0.00254   0.00000   0.03643   0.03609  -0.67550
   D33        2.47500   0.00343   0.00000   0.06782   0.06761   2.54261
   D34        1.60585  -0.00257   0.00000  -0.05688  -0.05666   1.54919
   D35       -1.49074  -0.00168   0.00000  -0.02549  -0.02514  -1.51589
   D36       -2.70443  -0.00132   0.00000  -0.02748  -0.02756  -2.73199
   D37        0.48216  -0.00043   0.00000   0.00391   0.00396   0.48612
   D38        2.89688  -0.00177   0.00000  -0.06768  -0.06632   2.83056
   D39       -1.39894  -0.00024   0.00000  -0.04136  -0.03998  -1.43892
   D40        0.75528   0.00419   0.00000   0.02164   0.02320   0.77848
   D41        2.74264   0.00572   0.00000   0.04796   0.04954   2.79218
   D42       -1.23913  -0.00623   0.00000  -0.07119  -0.07414  -1.31327
   D43        0.74823  -0.00469   0.00000  -0.04487  -0.04779   0.70044
   D44       -3.10573   0.00071   0.00000   0.02440   0.02451  -3.08122
   D45        0.03359   0.00070   0.00000   0.02413   0.02412   0.05771
   D46       -0.00589  -0.00003   0.00000  -0.00441  -0.00422  -0.01011
   D47        3.13343  -0.00004   0.00000  -0.00468  -0.00461   3.12882
   D48        3.10221  -0.00004   0.00000  -0.00752  -0.00715   3.09506
   D49       -0.00265   0.00050   0.00000   0.01738   0.01734   0.01469
   D50        0.01139  -0.00043   0.00000  -0.01053  -0.01060   0.00079
   D51       -3.12790  -0.00041   0.00000  -0.01021  -0.01014  -3.13804
   D52       -0.01413   0.00086   0.00000   0.02369   0.02348   0.00935
   D53        3.12566   0.00084   0.00000   0.02183   0.02172  -3.13581
   D54        0.01050  -0.00081   0.00000  -0.02558  -0.02559  -0.01509
   D55       -3.12932  -0.00079   0.00000  -0.02376  -0.02387   3.12999
         Item               Value     Threshold  Converged?
 Maximum Force            0.021361     0.000450     NO 
 RMS     Force            0.004487     0.000300     NO 
 Maximum Displacement     0.485564     0.001800     NO 
 RMS     Displacement     0.097048     0.001200     NO 
 Predicted change in Energy=-6.651226D-03
 GradGradGradGradGradGradGradGradGradGradGradGradGradGradGradGradGradGrad

                          Input orientation:                          
 ---------------------------------------------------------------------
 Center     Atomic      Atomic             Coordinates (Angstroms)
 Number     Number       Type             X           Y           Z
 ---------------------------------------------------------------------
      1          6           0        1.362488    0.696837    0.004593
      2          6           0        0.177710    1.380076   -0.037990
      3         16           0       -1.170452    0.303430   -0.040067
      4          6           0       -0.142616   -1.076253    0.031294
      5          6           0        1.188249   -0.725039    0.043425
      6          6           0        2.345197   -1.687829    0.110259
      7          6           0        2.257654   -2.657020    1.286475
      8          7           0        1.017263   -3.445834    1.244861
      9          7           0        2.527568   -2.419917   -1.141365
     10          6           0        1.623894   -2.934644   -2.007664
     11          7           0        2.238108   -3.587722   -2.982118
     12          6           0        3.552656   -3.442625   -2.660932
     13          7           0        3.780505   -2.753058   -1.547874
     14          1           0        2.329834    1.187444    0.005872
     15          1           0        0.031393    2.450872   -0.073562
     16          1           0       -0.568337   -2.070602    0.051839
     17          1           0        3.269095   -1.116582    0.240202
     18          1           0        3.107512   -3.341039    1.200456
     19          1           0        2.397625   -2.074084    2.211655
     20          1           0        1.123252   -4.260757    1.844671
     21          1           0        0.260398   -2.895299    1.647300
     22          1           0        0.558725   -2.814309   -1.891082
     23          1           0        4.360438   -3.852465   -3.251657
 ---------------------------------------------------------------------
                    Distance matrix (angstroms):
                    1          2          3          4          5
     1  C    0.000000
     2  C    1.368330   0.000000
     3  S    2.563698   1.725315   0.000000
     4  C    2.325919   2.478096   1.721937   0.000000
     5  C    1.433038   2.336521   2.574528   1.376481   0.000000
     6  C    2.581378   3.759258   4.043205   2.563098   1.506638
     7  C    3.700391   4.730594   4.719734   3.136176   2.534038
     8  N    4.338106   5.063592   4.527043   2.903959   2.979162
     9  N    3.519202   4.602089   4.722800   3.210989   2.463760
    10  C    4.159947   4.958616   4.707966   3.275901   3.046163
    11  N    5.295715   6.131243   5.951052   4.588679   4.295471
    12  C    5.388599   6.444263   6.573402   5.148090   4.504358
    13  N    4.489847   5.687062   6.010622   4.549321   3.655801
    14  H    1.084645   2.161173   3.610484   3.352309   2.227604
    15  H    2.203307   1.081331   2.461109   3.532971   3.382072
    16  H    3.374764   3.531549   2.450922   1.081846   2.212737
    17  H    2.641808   3.983384   4.669536   3.418339   2.126487
    18  H    4.558469   5.692663   5.755175   4.130318   3.444669
    19  H    3.690615   4.681896   4.842934   3.493203   2.825550
    20  H    5.293473   6.021417   5.444734   3.877089   3.968628
    21  H    4.100796   4.596289   3.889268   2.466338   2.853655
    22  H    4.070351   4.601303   4.017040   2.684818   2.916105
    23  H    6.347205   7.429829   7.627354   6.225963   5.540861
                    6          7          8          9         10
     6  C    0.000000
     7  C    1.526591   0.000000
     8  N    2.478168   1.470555   0.000000
     9  N    1.461428   2.454277   3.004597   0.000000
    10  C    2.561332   3.366018   3.347870   1.353531   0.000000
    11  N    3.630958   4.368922   4.402039   2.199075   1.324134
    12  C    3.495248   4.228029   4.656549   2.099004   2.098791
    13  N    2.438078   3.218980   3.989338   1.358706   2.212543
    14  H    2.877208   4.052784   4.972444   3.790555   4.641583
    15  H    4.745137   5.735546   6.122199   5.576350   5.939747
    16  H    2.939151   3.139178   2.414268   3.336223   3.129537
    17  H    1.093982   2.119115   3.391976   2.038939   3.326400
    18  H    2.121970   1.094322   2.093346   2.582426   3.557852
    19  H    2.137243   1.102435   2.172968   3.373311   4.375143
    20  H    3.334861   2.042162   1.017401   3.778519   4.104839
    21  H    2.857773   2.043527   1.018769   3.625286   3.901209
    22  H    2.909605   3.606657   3.231597   2.143354   1.078266
    23  H    4.477647   5.142513   5.617904   3.140850   3.143022
                   11         12         13         14         15
    11  N    0.000000
    12  C    1.360974   0.000000
    13  N    2.265549   1.329028   0.000000
    14  H    5.633712   5.481302   4.477290   0.000000
    15  H    7.056480   7.336694   6.581057   2.624003   0.000000
    16  H    4.402577   5.120952   4.683722   4.360776   4.562798
    17  H    4.189608   3.729271   2.477258   2.499131   4.827824
    18  H    4.279093   3.888288   2.889975   4.747523   6.680708
    19  H    5.412192   5.191252   4.062932   3.937974   5.594327
    20  H    4.999377   5.183802   4.565470   5.875365   7.065248
    21  H    5.081564   5.449714   4.756103   4.862678   5.620974
    22  H    2.146824   3.154532   3.240588   4.769621   5.594961
    23  H    2.155696   1.081405   2.109004   6.335261   8.280880
                   16         17         18         19         20
    16  H    0.000000
    17  H    3.958727   0.000000
    18  H    4.055268   2.428251   0.000000
    19  H    3.669025   2.358579   1.769643   0.000000
    20  H    3.297347   4.130957   2.279953   2.557390   0.000000
    21  H    1.977984   3.767760   2.916233   2.358099   1.627252
    22  H    2.366075   3.843274   4.041209   4.556527   4.045584
    23  H    6.195236   4.568278   4.653245   6.071495   6.051334
                   21         22         23
    21  H    0.000000
    22  H    3.551859   0.000000
    23  H    6.459588   4.169167   0.000000
 Stoichiometry    C8H10N4S
 Framework group  C1[X(C8H10N4S)]
 Deg. of freedom    63
 Full point group                 C1      NOp   1
 Largest Abelian subgroup         C1      NOp   1
 Largest concise Abelian subgroup C1      NOp   1
                         Standard orientation:                         
 ---------------------------------------------------------------------
 Center     Atomic      Atomic             Coordinates (Angstroms)
 Number     Number       Type             X           Y           Z
 ---------------------------------------------------------------------
      1          6           0        1.763668   -0.615231    1.403747
      2          6           0        2.964245   -0.959431    0.844760
      3         16           0        3.057149   -0.460863   -0.804335
      4          6           0        1.480420    0.228689   -0.745082
      5          6           0        0.897296    0.071333    0.491811
      6          6           0       -0.471744    0.565253    0.881342
      7          6           0       -0.674308    2.055169    0.617531
      8          7           0       -0.462559    2.386197   -0.799548
      9          7           0       -1.538539   -0.213196    0.255452
     10          6           0       -1.638856   -0.742657   -0.986181
     11          7           0       -2.822338   -1.313261   -1.150836
     12          6           0       -3.429101   -1.101400    0.048833
     13          7           0       -2.697358   -0.428918    0.931237
     14          1           0        1.500836   -0.844064    2.430884
     15          1           0        3.787900   -1.480572    1.313035
     16          1           0        1.062108    0.704611   -1.621953
     17          1           0       -0.605730    0.414114    1.956516
     18          1           0       -1.711700    2.287243    0.877340
     19          1           0       -0.028405    2.609940    1.317817
     20          1           0       -0.883055    3.291993   -0.994026
     21          1           0        0.536013    2.496027   -0.968902
     22          1           0       -0.848160   -0.688264   -1.717275
     23          1           0       -4.428362   -1.443318    0.281225
 ---------------------------------------------------------------------
 Rotational constants (GHZ):           1.2914423           0.4588116           0.4237644
 Standard basis: 6-31G(d) (6D, 7F)
 There are   219 symmetry adapted cartesian basis functions of A   symmetry.
 There are   219 symmetry adapted basis functions of A   symmetry.
   219 basis functions,   428 primitive gaussians,   219 cartesian basis functions
    51 alpha electrons       51 beta electrons
       nuclear repulsion energy       877.0252436665 Hartrees.
 NAtoms=   23 NActive=   23 NUniq=   23 SFac= 1.00D+00 NAtFMM=   60 NAOKFM=F Big=F
 Integral buffers will be    131072 words long.
 Raffenetti 2 integral format.
 Two-electron integral symmetry is turned on.
 Nuclear repulsion after empirical dispersion term =      876.9765293950 Hartrees.
 One-electron integrals computed using PRISM.
 NBasis=   219 RedAO= T EigKep=  1.30D-03  NBF=   219
 NBsUse=   219 1.00D-06 EigRej= -1.00D+00 NBFU=   219
 Initial guess from the checkpoint file:  "JID_3480.chk"
 B after Tr=    -0.000000    0.000000    0.000000
         Rot=    0.999983   -0.003744   -0.000561    0.004439 Ang=  -0.67 deg.
 ExpMin= 1.17D-01 ExpMax= 2.19D+04 ExpMxC= 3.30D+03 IAcc=2 IRadAn=         4 AccDes= 0.00D+00
 Harris functional with IExCor=  402 and IRadAn=       4 diagonalized for initial guess.
 HarFok:  IExCor=  402 AccDes= 0.00D+00 IRadAn=         4 IDoV= 1 UseB2=F ITyADJ=14
 ICtDFT=  3500011 ScaDFX=  1.000000  1.000000  1.000000  1.000000
 FoFCou: FMM=F IPFlag=           0 FMFlag=      100000 FMFlg1=           0
         NFxFlg=           0 DoJE=T BraDBF=F KetDBF=T FulRan=T
         wScrn=  0.000000 ICntrl=       500 IOpCl=  0 I1Cent=   200000004 NGrid=           0
         NMat0=    1 NMatS0=      1 NMatT0=    0 NMatD0=    1 NMtDS0=    0 NMtDT0=    0
 Petite list used in FoFCou.
 Keep R1 ints in memory in canonical form, NReq=295501481.
 Requested convergence on RMS density matrix=1.00D-08 within  32 cycles.
 Requested convergence on MAX density matrix=1.00D-06.
 Requested convergence on             energy=1.00D-06.
 No special actions if energy rises.
 Integral accuracy reduced to 1.0D-05 until final iterations.
 Initial convergence to 1.0D-05 achieved.  Increase integral accuracy.
 SCF Done:  E(RB3LYP) =  -928.070084566     A.U. after   12 cycles
            NFock= 12  Conv=0.68D-08     -V/T= 2.0068
 QCSCF skips out because SCF is already converged.
 Calling FoFJK, ICntrl=      2127 FMM=F ISym2X=0 I1Cent= 0 IOpClX= 0 NMat=1 NMatS=1 NMatT=0.
 ***** Axes restored to original set *****
 -------------------------------------------------------------------
 Center     Atomic                   Forces (Hartrees/Bohr)
 Number     Number              X              Y              Z
 -------------------------------------------------------------------
      1        6          -0.001908188    0.000040965   -0.000416953
      2        6           0.004063735    0.001558185   -0.000210099
      3       16          -0.006686113    0.002346423    0.000033543
      4        6           0.000708232   -0.001107688   -0.000833853
      5        6          -0.000814714    0.001652157    0.000058141
      6        6           0.002130863    0.002735791   -0.000623127
      7        6          -0.001548175   -0.005701726    0.003382410
      8        7           0.003443111    0.000907133    0.004413465
      9        7          -0.002262776   -0.001277334   -0.006389558
     10        6          -0.000168192   -0.000495777    0.001331224
     11        7          -0.001195749   -0.000241014   -0.002504710
     12        6          -0.001588447    0.001325131    0.005894587
     13        7           0.005064707    0.000490908   -0.000848702
     14        1           0.000404006   -0.000999859    0.000023927
     15        1          -0.000748030   -0.000192489    0.000008967
     16        1           0.000533410    0.002867498   -0.002486933
     17        1          -0.000320336   -0.000017684   -0.001903796
     18        1          -0.000347903   -0.000662268    0.000212141
     19        1          -0.001176441   -0.000447054    0.000160743
     20        1          -0.000373314   -0.001246548   -0.001036656
     21        1           0.002136917   -0.001827572    0.002120140
     22        1           0.000657866    0.000215490   -0.000463230
     23        1          -0.000004472    0.000077330    0.000078327
 -------------------------------------------------------------------
 Cartesian Forces:  Max     0.006686113 RMS     0.002190375

 GradGradGradGradGradGradGradGradGradGradGradGradGradGradGradGradGradGrad
 Berny optimization.
 Using GEDIIS/GDIIS optimizer.
 FormGI is forming the generalized inverse of G from B-inverse, IUseBI=4.
 Internal  Forces:  Max     0.012932503 RMS     0.002994111
 Search for a local minimum.
 Step number   2 out of a maximum of  128
 All quantities printed in internal units (Hartrees-Bohrs-Radians)
 Mixed Optimization -- RFO/linear search
 Update second derivatives using D2CorX and points    1    2
 DE= -4.27D-03 DEPred=-6.65D-03 R= 6.41D-01
 TightC=F SS=  1.41D+00  RLast= 3.40D-01 DXNew= 5.0454D-01 1.0205D+00
 Trust test= 6.41D-01 RLast= 3.40D-01 DXMaxT set to 5.05D-01
 ITU=  1  0
 Use linear search instead of GDIIS.
     Eigenvalues ---    0.00231   0.00473   0.00728   0.00852   0.01254
     Eigenvalues ---    0.01488   0.01791   0.01898   0.02057   0.02090
     Eigenvalues ---    0.02137   0.02192   0.02361   0.02397   0.02484
     Eigenvalues ---    0.03983   0.04446   0.04634   0.05205   0.05692
     Eigenvalues ---    0.06606   0.09128   0.12702   0.15791   0.16000
     Eigenvalues ---    0.16000   0.16000   0.16000   0.16000   0.16039
     Eigenvalues ---    0.17984   0.19012   0.22424   0.22970   0.23147
     Eigenvalues ---    0.23629   0.23981   0.24911   0.26266   0.29501
     Eigenvalues ---    0.32161   0.33379   0.33632   0.34000   0.34004
     Eigenvalues ---    0.35099   0.35440   0.35667   0.35697   0.35791
     Eigenvalues ---    0.36130   0.36364   0.38373   0.39817   0.43985
     Eigenvalues ---    0.44168   0.45537   0.45760   0.48643   0.50466
     Eigenvalues ---    0.52905   0.55297   0.61473
 RFO step:  Lambda=-4.11428176D-03 EMin= 2.31446170D-03
 Quartic linear search produced a step of -0.23956.
 Iteration  1 RMS(Cart)=  0.10168593 RMS(Int)=  0.00452708
 Iteration  2 RMS(Cart)=  0.00562723 RMS(Int)=  0.00029515
 Iteration  3 RMS(Cart)=  0.00001668 RMS(Int)=  0.00029493
 Iteration  4 RMS(Cart)=  0.00000000 RMS(Int)=  0.00029493
 Variable       Old X    -DE/DX   Delta X   Delta X   Delta X     New X
                                 (Linear)    (Quad)   (Total)
    R1        2.58577  -0.00038   0.00381  -0.00984  -0.00607   2.57970
    R2        2.70805  -0.00015   0.00343  -0.00872  -0.00529   2.70276
    R3        2.04968  -0.00009  -0.00000  -0.00019  -0.00019   2.04949
    R4        3.26037   0.00217  -0.00916   0.02648   0.01728   3.27765
    R5        2.04342  -0.00009   0.00016  -0.00057  -0.00041   2.04301
    R6        3.25399   0.00486  -0.00563   0.02422   0.01862   3.27261
    R7        2.60117   0.00182   0.00429  -0.00725  -0.00291   2.59826
    R8        2.04439  -0.00289   0.00012  -0.00629  -0.00617   2.03823
    R9        2.84713   0.00752   0.00737   0.00080   0.00816   2.85530
   R10        2.88484   0.01271   0.01067   0.00824   0.01890   2.90374
   R11        2.76170   0.00250   0.00094   0.00284   0.00378   2.76548
   R12        2.06733  -0.00051   0.00345  -0.00938  -0.00593   2.06140
   R13        2.77895  -0.00339   0.00047  -0.00819  -0.00772   2.77123
   R14        2.06797   0.00013   0.00128  -0.00278  -0.00150   2.06647
   R15        2.08330  -0.00025  -0.00239   0.00518   0.00279   2.08609
   R16        1.92261   0.00035   0.00205  -0.00428  -0.00223   1.92038
   R17        1.92519  -0.00174   0.00119  -0.00575  -0.00456   1.92064
   R18        2.55780  -0.00075   0.00347  -0.00900  -0.00552   2.55228
   R19        2.56758   0.00135  -0.00110   0.00451   0.00343   2.57101
   R20        2.50225  -0.00042  -0.00409   0.00923   0.00512   2.50737
   R21        2.03763  -0.00068   0.00025  -0.00197  -0.00173   2.03590
   R22        2.57187   0.00150   0.00062   0.00045   0.00107   2.57294
   R23        2.51150  -0.00280   0.00284  -0.01048  -0.00764   2.50386
   R24        2.04356  -0.00008   0.00048  -0.00130  -0.00082   2.04274
    A1        1.97251   0.00269   0.00072   0.00583   0.00656   1.97907
    A2        2.14886  -0.00024  -0.00307   0.00885   0.00577   2.15463
    A3        2.16181  -0.00244   0.00234  -0.01466  -0.01233   2.14948
    A4        1.94446   0.00038   0.00218  -0.00500  -0.00286   1.94160
    A5        2.23020   0.00059   0.00005   0.00322   0.00328   2.23347
    A6        2.10851  -0.00097  -0.00223   0.00173  -0.00050   2.10802
    A7        1.60432  -0.00217  -0.00079  -0.00389  -0.00462   1.59971
    A8        1.95309   0.00187   0.00636  -0.00893  -0.00264   1.95046
    A9        2.09709  -0.00167  -0.00713   0.01081   0.00341   2.10050
   A10        2.23296  -0.00021   0.00077  -0.00222  -0.00171   2.23125
   A11        1.95033  -0.00276  -0.00847   0.01205   0.00337   1.95369
   A12        2.14348  -0.00642   0.00191  -0.02312  -0.02156   2.12192
   A13        2.18927   0.00920   0.00657   0.01170   0.01787   2.20714
   A14        1.97779   0.01070   0.00805   0.03743   0.04592   2.02370
   A15        1.95838  -0.00282   0.00582  -0.01197  -0.00585   1.95253
   A16        1.89663  -0.00327  -0.01252   0.00720  -0.00543   1.89120
   A17        1.92730  -0.00328   0.00682  -0.01653  -0.00956   1.91774
   A18        1.86338  -0.00308  -0.00616  -0.00928  -0.01578   1.84759
   A19        1.83166   0.00092  -0.00536  -0.00992  -0.01566   1.81600
   A20        1.94670   0.01293   0.02330  -0.01157   0.01144   1.95814
   A21        1.86684  -0.00430   0.00753  -0.04234  -0.03459   1.83224
   A22        1.87929  -0.00241   0.00533  -0.01083  -0.00682   1.87247
   A23        1.89394  -0.00373  -0.00424  -0.00998  -0.01286   1.88107
   A24        1.99816  -0.00479  -0.02884   0.06277   0.03413   2.03229
   A25        1.87327   0.00189  -0.00377   0.00569   0.00250   1.87576
   A26        1.90191   0.00148  -0.00091   0.00801   0.00711   1.90903
   A27        1.90244  -0.00099   0.00045  -0.00666  -0.00620   1.89624
   A28        1.85184  -0.00075  -0.00511   0.00698   0.00189   1.85372
   A29        2.28542   0.00218  -0.00371   0.01465   0.01075   2.29616
   A30        2.08764  -0.00434  -0.00029  -0.01290  -0.01334   2.07430
   A31        1.90809   0.00213   0.00432  -0.00418   0.00005   1.90815
   A32        1.92717  -0.00076  -0.00243   0.00413   0.00174   1.92890
   A33        2.15064   0.00056   0.00485  -0.01028  -0.00546   2.14518
   A34        2.20537   0.00020  -0.00242   0.00617   0.00373   2.20910
   A35        1.79444  -0.00142   0.00073  -0.00620  -0.00543   1.78900
   A36        2.00265   0.00292   0.00253   0.00275   0.00524   2.00789
   A37        2.15576  -0.00138  -0.00118  -0.00120  -0.00247   2.15329
   A38        2.12476  -0.00154  -0.00135  -0.00148  -0.00292   2.12184
   A39        1.79230  -0.00287  -0.00515   0.00351  -0.00155   1.79074
    D1       -0.00532  -0.00036   0.00165  -0.01768  -0.01591  -0.02122
    D2       -3.14031  -0.00017   0.00058  -0.00803  -0.00751   3.13536
    D3        3.13360  -0.00020   0.00101  -0.00994  -0.00863   3.12497
    D4       -0.00140  -0.00002  -0.00006  -0.00029  -0.00024  -0.00163
    D5       -0.00200   0.00064   0.00030   0.02389   0.02423   0.02222
    D6       -3.12857  -0.00053  -0.00092  -0.02006  -0.02039   3.13422
    D7       -3.14090   0.00048   0.00097   0.01604   0.01694  -3.12396
    D8        0.01572  -0.00068  -0.00025  -0.02791  -0.02768  -0.01196
    D9        0.00856  -0.00001  -0.00241   0.00571   0.00316   0.01171
   D10       -3.13910  -0.00018  -0.00143  -0.00316  -0.00453   3.13955
   D11       -0.00977   0.00037   0.00260   0.00809   0.01069   0.00093
   D12        3.14111   0.00143   0.00178   0.04326   0.04532  -3.09675
   D13        0.00844  -0.00063  -0.00212  -0.01915  -0.02126  -0.01282
   D14        3.13454   0.00041  -0.00090   0.02582   0.02559  -3.12306
   D15        3.13985  -0.00180  -0.00125  -0.05762  -0.05906   3.08079
   D16       -0.01724  -0.00077  -0.00003  -0.01265  -0.01222  -0.02945
   D17        2.18259  -0.00150  -0.01586  -0.07903  -0.09488   2.08771
   D18       -1.90312   0.00043   0.00640  -0.08090  -0.07452  -1.97764
   D19        0.11437  -0.00206  -0.00454  -0.09541  -0.10005   0.01432
   D20       -0.94187  -0.00270  -0.01715  -0.12908  -0.14614  -1.08802
   D21        1.25560  -0.00076   0.00511  -0.13094  -0.12578   1.12982
   D22       -3.01010  -0.00326  -0.00584  -0.14546  -0.15131   3.12177
   D23        1.01387   0.00091   0.00716  -0.00999  -0.00278   1.01109
   D24        3.08223   0.00100   0.02198  -0.05463  -0.03300   3.04923
   D25       -1.19225  -0.00012   0.02420  -0.07426  -0.04979  -1.24204
   D26       -1.20007  -0.00106  -0.01421  -0.00989  -0.02393  -1.22400
   D27        0.86829  -0.00097   0.00061  -0.05452  -0.05415   0.81414
   D28        2.87700  -0.00208   0.00283  -0.07415  -0.07094   2.80606
   D29        3.10122   0.00113  -0.00783   0.01487   0.00701   3.10823
   D30       -1.11361   0.00122   0.00699  -0.02976  -0.02321  -1.13682
   D31        0.89510   0.00010   0.00922  -0.04939  -0.04000   0.85510
   D32       -0.67550  -0.00475  -0.00865  -0.02312  -0.03153  -0.70703
   D33        2.54261  -0.00440  -0.01620   0.02280   0.00676   2.54938
   D34        1.54919   0.00469   0.01357   0.00421   0.01761   1.56680
   D35       -1.51589   0.00504   0.00602   0.05013   0.05591  -1.45998
   D36       -2.73199   0.00007   0.00660  -0.01958  -0.01293  -2.74492
   D37        0.48612   0.00041  -0.00095   0.02635   0.02536   0.51148
   D38        2.83056  -0.00215   0.01589  -0.15051  -0.13515   2.69541
   D39       -1.43892  -0.00278   0.00958  -0.14147  -0.13244  -1.57136
   D40        0.77848  -0.00213  -0.00556  -0.08576  -0.09169   0.68679
   D41        2.79218  -0.00275  -0.01187  -0.07672  -0.08897   2.70321
   D42       -1.31327   0.00124   0.01776  -0.12649  -0.10780  -1.42107
   D43        0.70044   0.00062   0.01145  -0.11745  -0.10509   0.59535
   D44       -3.08122   0.00056  -0.00587   0.03873   0.03303  -3.04819
   D45        0.05771   0.00079  -0.00578   0.04473   0.03909   0.09680
   D46       -0.01011   0.00001   0.00101  -0.00398  -0.00302  -0.01313
   D47        3.12882   0.00025   0.00110   0.00203   0.00303   3.13186
   D48        3.09506  -0.00074   0.00171  -0.03469  -0.03275   3.06231
   D49        0.01469  -0.00054  -0.00415   0.00116  -0.00301   0.01168
   D50        0.00079   0.00050   0.00254   0.00490   0.00746   0.00825
   D51       -3.13804   0.00025   0.00243  -0.00131   0.00115  -3.13689
   D52        0.00935  -0.00087  -0.00562  -0.00435  -0.00999  -0.00064
   D53       -3.13581   0.00004  -0.00520   0.01812   0.01296  -3.12285
   D54       -0.01509   0.00090   0.00613   0.00200   0.00821  -0.00689
   D55        3.12999   0.00000   0.00572  -0.02004  -0.01428   3.11571
         Item               Value     Threshold  Converged?
 Maximum Force            0.012933     0.000450     NO 
 RMS     Force            0.002994     0.000300     NO 
 Maximum Displacement     0.553300     0.001800     NO 
 RMS     Displacement     0.101261     0.001200     NO 
 Predicted change in Energy=-2.879994D-03
 GradGradGradGradGradGradGradGradGradGradGradGradGradGradGradGradGradGrad

                          Input orientation:                          
 ---------------------------------------------------------------------
 Center     Atomic      Atomic             Coordinates (Angstroms)
 Number     Number       Type             X           Y           Z
 ---------------------------------------------------------------------
      1          6           0        1.343302    0.708798    0.071431
      2          6           0        0.183810    1.423245   -0.021819
      3         16           0       -1.187264    0.375854   -0.199247
      4          6           0       -0.183452   -1.033447   -0.126193
      5          6           0        1.143086   -0.706716    0.028727
      6          6           0        2.302364   -1.672517    0.108079
      7          6           0        2.283848   -2.649205    1.294191
      8          7           0        1.069136   -3.470492    1.316569
      9          7           0        2.482934   -2.411394   -1.142150
     10          6           0        1.591265   -2.958537   -1.996377
     11          7           0        2.216613   -3.636854   -2.949971
     12          6           0        3.526584   -3.475941   -2.615495
     13          7           0        3.742838   -2.748975   -1.529062
     14          1           0        2.321196    1.166759    0.172591
     15          1           0        0.061524    2.497344   -0.009052
[...]
   144    C    7  S      Ryd( 3S)     0.00183       2.47665
   145    C    7  S      Ryd( 5S)     0.00009      13.15893
   146    C    7  px     Val( 2p)     0.59788       0.00710
   147    C    7  px     Ryd( 3p)     0.00254       0.65030
   148    C    7  px     Ryd( 4p)     0.00042       1.25032
   149    C    7  px     Ryd( 5p)     0.00002       2.76446
   150    C    7  py     Val( 2p)     0.51789       0.01239
   151    C    7  py     Ryd( 3p)     0.00084       1.85999
   152    C    7  py     Ryd( 4p)     0.00039       1.96881
   153    C    7  py     Ryd( 5p)     0.00004       2.90216
   154    C    7  pz     Val( 2p)     0.45914       0.02332
   155    C    7  pz     Ryd( 3p)     0.00137       1.00926
   156    C    7  pz     Ryd( 4p)     0.00103       1.23253
   157    C    7  pz     Ryd( 5p)     0.00002       2.83432
   158    C    7  dxy    Ryd( 3d)     0.00037       2.15295
   159    C    7  dxz    Ryd( 3d)     0.00077       2.18739
   160    C    7  dyz    Ryd( 3d)     0.00040       2.09820
   161    C    7  dx2y2  Ryd( 3d)     0.00034       2.24624
   162    C    7  dz2    Ryd( 3d)     0.00070       2.35845
 
   163    N    8  S      Cor( 1S)     0.99977     -14.02698
   164    N    8  S      Val( 2S)     0.71238      -0.48433
   165    N    8  S      Ryd( 3S)     0.00077       0.96228
   166    N    8  S      Ryd( 4S)     0.00029       1.54670
   167    N    8  S      Ryd( 5S)     0.00000      34.70091
   168    N    8  px     Val( 2p)     0.83258      -0.10933
   169    N    8  px     Ryd( 3p)     0.00331       0.43151
   170    N    8  px     Ryd( 4p)     0.00043       0.96184
   171    N    8  px     Ryd( 5p)     0.00001       4.14714
   172    N    8  py     Val( 2p)     0.69974      -0.08763
   173    N    8  py     Ryd( 3p)     0.00166       0.62805
   174    N    8  py     Ryd( 4p)     0.00042       0.95477
   175    N    8  py     Ryd( 5p)     0.00001       4.30250
   176    N    8  pz     Val( 2p)     0.67226      -0.09476
   177    N    8  pz     Ryd( 3p)     0.00216       0.70107
   178    N    8  pz     Ryd( 4p)     0.00043       1.02809
   179    N    8  pz     Ryd( 5p)     0.00001       4.26389
   180    N    8  dxy    Ryd( 3d)     0.00043       2.62667
   181    N    8  dxz    Ryd( 3d)     0.00041       2.57586
   182    N    8  dyz    Ryd( 3d)     0.00012       2.54536
   183    N    8  dx2y2  Ryd( 3d)     0.00058       2.79225
   184    N    8  dz2    Ryd( 3d)     0.00056       2.93519
 
   185    N    9  S      Cor( 1S)     0.99964     -14.13956
   186    N    9  S      Val( 2S)     0.60000      -0.43937
   187    N    9  S      Ryd( 3S)     0.00344       1.25461
   188    N    9  S      Ryd( 4S)     0.00039       1.77731
   189    N    9  S      Ryd( 5S)     0.00000      34.52742
   190    N    9  px     Val( 2p)     0.59846      -0.15723
   191    N    9  px     Ryd( 3p)     0.00210       1.24373
   192    N    9  px     Ryd( 4p)     0.00050       1.33175
   193    N    9  px     Ryd( 5p)     0.00001       4.37484
   194    N    9  py     Val( 2p)     0.71886      -0.18357
   195    N    9  py     Ryd( 4p)     0.00226       1.09112
   196    N    9  py     Ryd( 3p)     0.00020       0.99228
   197    N    9  py     Ryd( 5p)     0.00002       4.17182
   198    N    9  pz     Val( 2p)     0.68329      -0.18079
   199    N    9  pz     Ryd( 4p)     0.00211       1.18700
   200    N    9  pz     Ryd( 3p)     0.00040       1.11897
   201    N    9  pz     Ryd( 5p)     0.00004       4.29021
   202    N    9  dxy    Ryd( 3d)     0.00063       2.54915
   203    N    9  dxz    Ryd( 3d)     0.00060       2.65336
   204    N    9  dyz    Ryd( 3d)     0.00034       2.84204
   205    N    9  dx2y2  Ryd( 3d)     0.00057       2.73434
   206    N    9  dz2    Ryd( 3d)     0.00058       2.58173
 
   207    C   10  S      Cor( 1S)     0.99962     -10.01313
   208    C   10  S      Val( 2S)     0.44376      -0.08337
   209    C   10  S      Ryd( 3S)     0.00226       1.07204
   210    C   10  S      Ryd( 4S)     0.00056       2.53308
   211    C   10  S      Ryd( 5S)     0.00003      19.91451
   212    C   10  px     Val( 2p)     0.52411       0.02324
   213    C   10  px     Ryd( 4p)     0.00221       1.33364
   214    C   10  px     Ryd( 3p)     0.00006       1.01327
   215    C   10  px     Ryd( 5p)     0.00008       2.34263
   216    C   10  py     Val( 2p)     0.45045      -0.00095
   217    C   10  py     Ryd( 3p)     0.00259       0.84244
   218    C   10  py     Ryd( 4p)     0.00009       0.94247
   219    C   10  py     Ryd( 5p)     0.00009       2.43942
   220    C   10  pz     Val( 2p)     0.45337       0.02481
   221    C   10  pz     Ryd( 3p)     0.00324       0.94749
   222    C   10  pz     Ryd( 4p)     0.00007       1.02305
   223    C   10  pz     Ryd( 5p)     0.00007       2.42128
   224    C   10  dxy    Ryd( 3d)     0.00069       2.05455
   225    C   10  dxz    Ryd( 3d)     0.00094       2.23021
   226    C   10  dyz    Ryd( 3d)     0.00041       2.28013
   227    C   10  dx2y2  Ryd( 3d)     0.00096       2.25834
   228    C   10  dz2    Ryd( 3d)     0.00071       2.07454
 
   229    N   11  S      Cor( 1S)     0.99973     -14.02457
   230    N   11  S      Val( 2S)     0.71463      -0.44441
   231    N   11  S      Ryd( 3S)     0.00305       1.06517
   232    N   11  S      Ryd( 4S)     0.00009       1.62960
   233    N   11  S      Ryd( 5S)     0.00000      35.41904
   234    N   11  px     Val( 2p)     0.60641      -0.06598
   235    N   11  px     Ryd( 4p)     0.00185       1.05227
   236    N   11  px     Ryd( 3p)     0.00004       0.81026
   237    N   11  px     Ryd( 5p)     0.00001       4.41200
   238    N   11  py     Val( 2p)     0.70509      -0.10339
   239    N   11  py     Ryd( 4p)     0.00097       0.85484
   240    N   11  py     Ryd( 3p)     0.00010       0.72081
   241    N   11  py     Ryd( 5p)     0.00001       3.99125
   242    N   11  pz     Val( 2p)     0.73300      -0.10692
   243    N   11  pz     Ryd( 4p)     0.00136       0.89815
   244    N   11  pz     Ryd( 3p)     0.00008       0.73764
   245    N   11  pz     Ryd( 5p)     0.00002       4.10157
   246    N   11  dxy    Ryd( 3d)     0.00047       2.67887
   247    N   11  dxz    Ryd( 3d)     0.00060       2.75829
   248    N   11  dyz    Ryd( 3d)     0.00073       2.70752
   249    N   11  dx2y2  Ryd( 3d)     0.00054       2.64533
   250    N   11  dz2    Ryd( 3d)     0.00084       2.51390
 
   251    C   12  S      Cor( 1S)     0.99970     -10.00378
   252    C   12  S      Val( 2S)     0.44938      -0.08904
   253    C   12  S      Ryd( 4S)     0.00223       0.76021
   254    C   12  S      Ryd( 3S)     0.00046       0.73555
   255    C   12  S      Ryd( 5S)     0.00005      22.74873
   256    C   12  px     Val( 2p)     0.53875       0.02990
   257    C   12  px     Ryd( 3p)     0.00248       1.32993
   258    C   12  px     Ryd( 4p)     0.00014       1.42509
   259    C   12  px     Ryd( 5p)     0.00003       1.81641
   260    C   12  py     Val( 2p)     0.46661       0.00442
   261    C   12  py     Ryd( 3p)     0.00359       0.83715
   262    C   12  py     Ryd( 4p)     0.00024       1.20672
   263    C   12  py     Ryd( 5p)     0.00003       1.97915
   264    C   12  pz     Val( 2p)     0.44145       0.03337
   265    C   12  pz     Ryd( 3p)     0.00536       0.87695
   266    C   12  pz     Ryd( 4p)     0.00016       1.25144
   267    C   12  pz     Ryd( 5p)     0.00002       1.98950
   268    C   12  dxy    Ryd( 3d)     0.00071       2.08150
   269    C   12  dxz    Ryd( 3d)     0.00078       2.33798
   270    C   12  dyz    Ryd( 3d)     0.00053       2.20862
   271    C   12  dx2y2  Ryd( 3d)     0.00095       2.19555
   272    C   12  dz2    Ryd( 3d)     0.00105       1.97743
 
   273    N   13  S      Cor( 1S)     0.99973     -14.06364
   274    N   13  S      Val( 2S)     0.72313      -0.45552
   275    N   13  S      Ryd( 3S)     0.00179       0.75816
   276    N   13  S      Ryd( 4S)     0.00053       1.54632
   277    N   13  S      Ryd( 5S)     0.00000      35.27603
   278    N   13  px     Val( 2p)     0.50169      -0.04031
   279    N   13  px     Ryd( 4p)     0.00189       1.05303
   280    N   13  px     Ryd( 3p)     0.00004       0.79873
   281    N   13  px     Ryd( 5p)     0.00002       4.38085
   282    N   13  py     Val( 2p)     0.68141      -0.11061
   283    N   13  py     Ryd( 4p)     0.00116       0.94025
   284    N   13  py     Ryd( 3p)     0.00009       0.76733
   285    N   13  py     Ryd( 5p)     0.00002       4.09330
   286    N   13  pz     Val( 2p)     0.74084      -0.12228
   287    N   13  pz     Ryd( 4p)     0.00140       0.93038
   288    N   13  pz     Ryd( 3p)     0.00007       0.86280
   289    N   13  pz     Ryd( 5p)     0.00003       4.15193
   290    N   13  dxy    Ryd( 3d)     0.00046       2.52094
   291    N   13  dxz    Ryd( 3d)     0.00072       2.72191
   292    N   13  dyz    Ryd( 3d)     0.00073       2.77060
   293    N   13  dx2y2  Ryd( 3d)     0.00058       2.68886
   294    N   13  dz2    Ryd( 3d)     0.00093       2.44787
 
   295    H   14  S      Val( 1S)     0.38588       0.13730
   296    H   14  S      Ryd( 2S)     0.00147       0.38799
   297    H   14  S      Ryd( 4S)     0.00030       1.60569
   298    H   14  S      Ryd( 3S)     0.00002       0.99653
   299    H   14  px     Ryd( 2p)     0.00009       2.08814
   300    H   14  py     Ryd( 2p)     0.00013       2.09911
   301    H   14  pz     Ryd( 2p)     0.00018       2.39941
 
   302    H   15  S      Val( 1S)     0.38385       0.13214
   303    H   15  S      Ryd( 2S)     0.00218       0.28854
   304    H   15  S      Ryd( 4S)     0.00025       1.62130
   305    H   15  S      Ryd( 3S)     0.00002       0.91992
   306    H   15  px     Ryd( 2p)     0.00012       2.28687
   307    H   15  py     Ryd( 2p)     0.00013       2.18709
   308    H   15  pz     Ryd( 2p)     0.00005       1.90718
 
   309    H   16  S      Val( 1S)     0.36892       0.16959
   310    H   16  S      Ryd( 2S)     0.00078       0.45549
   311    H   16  S      Ryd( 4S)     0.00047       1.98184
   312    H   16  S      Ryd( 3S)     0.00006       0.87936
   313    H   16  px     Ryd( 2p)     0.00008       2.00047
   314    H   16  py     Ryd( 2p)     0.00016       2.30363
   315    H   16  pz     Ryd( 2p)     0.00011       2.26263
 
   316    H   17  S      Val( 1S)     0.38352       0.12873
   317    H   17  S      Ryd( 2S)     0.00118       0.53658
   318    H   17  S      Ryd( 3S)     0.00091       1.31685
   319    H   17  S      Ryd( 4S)     0.00009       2.72373
   320    H   17  px     Ryd( 2p)     0.00008       2.01313
   321    H   17  py     Ryd( 2p)     0.00008       2.02700
   322    H   17  pz     Ryd( 2p)     0.00015       2.87308
 
   323    H   18  S      Val( 1S)     0.40630       0.12913
   324    H   18  S      Ryd( 2S)     0.00120       0.37358
   325    H   18  S      Ryd( 4S)     0.00061       1.70695
   326    H   18  S      Ryd( 3S)     0.00003       1.16994
   327    H   18  px     Ryd( 2p)     0.00015       2.58327
   328    H   18  py     Ryd( 2p)     0.00011       1.97756
   329    H   18  pz     Ryd( 2p)     0.00006       2.18111
 
   330    H   19  S      Val( 1S)     0.39756       0.12427
   331    H   19  S      Ryd( 2S)     0.00159       0.36889
   332    H   19  S      Ryd( 4S)     0.00034       1.80713
   333    H   19  S      Ryd( 3S)     0.00003       1.09016
   334    H   19  px     Ryd( 2p)     0.00012       2.40638
   335    H   19  py     Ryd( 2p)     0.00012       2.19873
   336    H   19  pz     Ryd( 2p)     0.00007       2.12766
 
   337    H   20  S      Val( 1S)     0.32262       0.17965
   338    H   20  S      Ryd( 2S)     0.00112       0.44451
   339    H   20  S      Ryd( 4S)     0.00031       2.08216
   340    H   20  S      Ryd( 3S)     0.00002       0.95171
   341    H   20  px     Ryd( 2p)     0.00040       2.37404
   342    H   20  py     Ryd( 2p)     0.00019       2.07087
   343    H   20  pz     Ryd( 2p)     0.00024       2.04298
 
   344    H   21  S      Val( 1S)     0.30837       0.17645
   345    H   21  S      Ryd( 2S)     0.00540       0.34021
   346    H   21  S      Ryd( 4S)     0.00019       2.05842
   347    H   21  S      Ryd( 3S)     0.00003       1.04832
   348    H   21  px     Ryd( 2p)     0.00032       1.84288
   349    H   21  py     Ryd( 2p)     0.00025       2.76720
   350    H   21  pz     Ryd( 2p)     0.00024       1.85467
 
   351    H   22  S      Val( 1S)     0.39138       0.11294
   352    H   22  S      Ryd( 2S)     0.00078       0.49950
   353    H   22  S      Ryd( 3S)     0.00030       1.32209
   354    H   22  S      Ryd( 4S)     0.00006       1.38376
   355    H   22  px     Ryd( 2p)     0.00025       2.60498
   356    H   22  py     Ryd( 2p)     0.00008       1.86901
   357    H   22  pz     Ryd( 2p)     0.00012       2.16263
 
   358    H   23  S      Val( 1S)     0.40822       0.10771
   359    H   23  S      Ryd( 2S)     0.00008       0.43363
   360    H   23  S      Ryd( 3S)     0.00025       1.05462
   361    H   23  S      Ryd( 4S)     0.00002       1.57655
   362    H   23  px     Ryd( 2p)     0.00034       2.76824
   363    H   23  py     Ryd( 2p)     0.00008       1.84729
   364    H   23  pz     Ryd( 2p)     0.00005       1.90713

 WARNING:  Population inversion found on atom  C    1
           Population inversion found on atom  S    3
           Population inversion found on atom  C    4
           Population inversion found on atom  C    5
           Population inversion found on atom  C    6
           Population inversion found on atom  N    9
           Population inversion found on atom  C   10
           Population inversion found on atom  N   11
           Population inversion found on atom  C   12
           Population inversion found on atom  N   13
           Population inversion found on atom  H   14
           Population inversion found on atom  H   15
           Population inversion found on atom  H   16
           Population inversion found on atom  H   18
           Population inversion found on atom  H   19
           Population inversion found on atom  H   20
           Population inversion found on atom  H   21
           Population inversion found on atom  H   23


 Summary of Natural Population Analysis:                  
                                                          
                                       Natural Population 
                Natural  -----------------------------------------------
    Atom  No    Charge         Core      Valence    Rydberg      Total
 -----------------------------------------------------------------------
      C    1   -0.11922      0.99948     2.10767    0.01207     3.11922
      C    2   -0.18694      0.99954     2.17544    0.01196     3.18694
      S    3    0.20150      4.99945     2.77821    0.02084     7.79850
      C    4   -0.18134      0.99944     2.17198    0.00991     3.18134
      C    5   -0.06261      0.99947     2.04875    0.01439     3.06261
      C    6   -0.01158      0.99952     1.99578    0.01627     3.01158
      C    7   -0.08780      0.99962     2.07606    0.01213     3.08780
      N    8   -0.42832      0.99977     2.91696    0.01160     3.92832
      N    9   -0.11444      0.99964     2.60060    0.01420     3.61444
      C   10    0.11361      0.99962     1.87169    0.01508     2.88639
      N   11   -0.26963      0.99973     2.75913    0.01077     3.76963
      C   12    0.08530      0.99970     1.89619    0.01881     2.91470
      N   13   -0.15724      0.99973     2.64708    0.01043     3.65724
      H   14    0.11193      0.00000     0.38588    0.00220     0.38807
      H   15    0.11338      0.00000     0.38385    0.00277     0.38662
      H   16    0.12941      0.00000     0.36892    0.00167     0.37059
      H   17    0.11397      0.00000     0.38352    0.00251     0.38603
      H   18    0.09155      0.00000     0.40630    0.00215     0.40845
      H   19    0.10019      0.00000     0.39756    0.00225     0.39981
      H   20    0.17511      0.00000     0.32262    0.00228     0.32489
      H   21    0.18520      0.00000     0.30837    0.00643     0.31480
      H   22    0.10704      0.00000     0.39138    0.00158     0.39296
      H   23    0.09096      0.00000     0.40822    0.00082     0.40904
 =======================================================================
   * Total *   -0.00000     16.99472    33.80216    0.20311    51.00000

                                 Natural Population      
 --------------------------------------------------------
   Core                      16.99472 ( 99.9690% of  17)
   Valence                   33.80216 ( 99.4181% of  34)
   Natural Minimal Basis     50.79689 ( 99.6017% of  51)
   Natural Rydberg Basis      0.20311 (  0.3983% of  51)
 --------------------------------------------------------

    Atom  No          Natural Electron Configuration
 ----------------------------------------------------------------------------
      C    1      [core]2S( 0.47)2p( 1.63)
      C    2      [core]2S( 0.52)2p( 1.66)3p( 0.01)
      S    3      [core]3S( 0.81)3p( 1.97)3d( 0.01)
      C    4      [core]2S( 0.52)2p( 1.65)4p( 0.01)
      C    5      [core]2S( 0.44)2p( 1.61)3p( 0.01)
      C    6      [core]2S( 0.47)2p( 1.53)3p( 0.01)
      C    7      [core]2S( 0.50)2p( 1.57)
      N    8      [core]2S( 0.71)2p( 2.20)3p( 0.01)
      N    9      [core]2S( 0.60)2p( 2.00)
      C   10      [core]2S( 0.44)2p( 1.43)3p( 0.01)
      N   11      [core]2S( 0.71)2p( 2.04)
      C   12      [core]2S( 0.45)2p( 1.45)3p( 0.01)
      N   13      [core]2S( 0.72)2p( 1.92)
      H   14            1S( 0.39)
      H   15            1S( 0.38)
      H   16            1S( 0.37)
      H   17            1S( 0.38)
      H   18            1S( 0.41)
      H   19            1S( 0.40)
      H   20            1S( 0.32)
      H   21            1S( 0.31)2S( 0.01)
      H   22            1S( 0.39)
      H   23            1S( 0.41)


 NBO analysis skipped by request.
 1\1\GINC-NODE100\SP\UB3LYP\6-311++G(d,p)\C8H10N4S1(1-,2)\VSC10255\10-D
 ec-2020\0\\# B3LYP/6-311++G(d,p) empiricaldispersion=gd3bj scf=xqc pop
 =npa geom=check\\CID_61623310_JID_3480_Energie_anion\\-1,2\C,0,1.32168
 38912,0.6732804002,-0.3564409681\C,0,0.1577540135,1.3861902192,-0.3964
 010138\S,0,-1.1821877814,0.4434079077,0.1804484847\C,0,-0.158484993,-0
 .9226439181,0.4725675236\C,0,1.1483437989,-0.6587241345,0.1486658707\C
 ,0,2.294797655,-1.632676333,0.2673787488\C,0,2.1797152335,-2.665219364
 ,1.401460067\N,0,1.0808760829,-3.6034526299,1.1605815959\N,0,2.5034447
 892,-2.3358997285,-1.0089909721\C,0,1.6691864094,-2.5159954282,-2.0588
 670824\N,0,2.2365348927,-3.2973431333,-2.967745957\C,0,3.444638567,-3.
 5786973959,-2.4041239332\N,0,3.6586939877,-3.0262530608,-1.2166022279\
 H,0,2.2803819395,1.0712870193,-0.6722198631\H,0,0.0069426912,2.4059892
 729,-0.7223955282\H,0,-0.5485477091,-1.8561203042,0.8520099593\H,0,3.2
 156949943,-1.0654330169,0.4382258932\H,0,3.1623419302,-3.1503042195,1.
 5012431261\H,0,1.9766502283,-2.1198910197,2.329007607\H,0,1.3197959676
 ,-4.2021448452,0.3712738983\H,0,0.9798957652,-4.2199191073,1.964213719
 1\H,0,0.6908810431,-2.063872425,-2.1137728727\H,0,4.1891266029,-4.2019
 847554,-2.8809260755\\Version=ES64L-G16RevA.03\State=2-A\HF=-928.23898
 22\S2=0.750089\S2-1=0.\S2A=0.75\RMSD=2.574e-10\Dipole=-0.4876626,-0.39
 4786,-1.1762759\Quadrupole=12.214917,-11.929673,-0.285244,2.4315295,0.
 0533319,7.127681\PG=C01 [X(C8H10N4S1)]\\@


 I do not feel obliged to believe that the same God who
 has endowed us with sense, reason, and intellect has
 intended us to forgo their use.
                   --Galileo Galilei
 Job cpu time:       0 days  3 hours 11 minutes 48.9 seconds.
 Elapsed time:       0 days  0 hours 47 minutes 59.6 seconds.
 File lengths (MBytes):  RWF=    180 Int=      0 D2E=      0 Chk=     20 Scr=      8
 Normal termination of Gaussian 16 at Thu Dec 10 00:42:29 2020.
