 Entering Gaussian System, Link 0=g16
 Initial command:
 /apps/brussel/CO7/skylake/software/Gaussian/G16.A.03-intel-2017b/g16/l1.exe "/scratch/brussel/102/vsc10255/3549904[6686].master01.hydra.brussel.vsc/Gau-224714.inp" -scrdir="/scratch/brussel/102/vsc10255/3549904[6686].master01.hydra.brussel.vsc/"
 Entering Link 1 = /apps/brussel/CO7/skylake/software/Gaussian/G16.A.03-intel-2017b/g16/l1.exe.bin PID=    224715.
  
 Copyright (c) 1988,1990,1992,1993,1995,1998,2003,2009,2016,
            Gaussian, Inc.  All Rights Reserved.
  
 This is part of the Gaussian(R) 16 program.  It is based on
 the Gaussian(R) 09 system (copyright 2009, Gaussian, Inc.),
 the Gaussian(R) 03 system (copyright 2003, Gaussian, Inc.),
 the Gaussian(R) 98 system (copyright 1998, Gaussian, Inc.),
 the Gaussian(R) 94 system (copyright 1995, Gaussian, Inc.),
 the Gaussian 92(TM) system (copyright 1992, Gaussian, Inc.),
 the Gaussian 90(TM) system (copyright 1990, Gaussian, Inc.),
 the Gaussian 88(TM) system (copyright 1988, Gaussian, Inc.),
 the Gaussian 86(TM) system (copyright 1986, Carnegie Mellon
 University), and the Gaussian 82(TM) system (copyright 1983,
 Carnegie Mellon University). Gaussian is a federally registered
 trademark of Gaussian, Inc.
  
 This software contains proprietary and confidential information,
 including trade secrets, belonging to Gaussian, Inc.
  
 This software is provided under written license and may be
 used, copied, transmitted, or stored only in accord with that
 written license.
  
 The following legend is applicable only to US Government
 contracts under FAR:
  
                    RESTRICTED RIGHTS LEGEND
  
 Use, reproduction and disclosure by the US Government is
 subject to restrictions as set forth in subparagraphs (a)
 and (c) of the Commercial Computer Software - Restricted
 Rights clause in FAR 52.227-19.
  
 Gaussian, Inc.
 340 Quinnipiac St., Bldg. 40, Wallingford CT 06492
  
  
 ---------------------------------------------------------------
 Warning -- This program may not be used in any manner that
 competes with the business of Gaussian, Inc. or will provide
 assistance to any competitor of Gaussian, Inc.  The licensee
 of this program is prohibited from giving any competitor of
 Gaussian, Inc. access to this program.  By using this program,
 the user acknowledges that Gaussian, Inc. is engaged in the
 business of creating and licensing software in the field of
 computational chemistry and represents and warrants to the
 licensee that it is not a competitor of Gaussian, Inc. and that
 it will not use this program in any manner prohibited above.
 ---------------------------------------------------------------
  

 Cite this work as:
 Gaussian 16, Revision A.03,
 M. J. Frisch, G. W. Trucks, H. B. Schlegel, G. E. Scuseria, 
 M. A. Robb, J. R. Cheeseman, G. Scalmani, V. Barone, 
 G. A. Petersson, H. Nakatsuji, X. Li, M. Caricato, A. V. Marenich, 
 J. Bloino, B. G. Janesko, R. Gomperts, B. Mennucci, H. P. Hratchian, 
 J. V. Ortiz, A. F. Izmaylov, J. L. Sonnenberg, D. Williams-Young, 
 F. Ding, F. Lipparini, F. Egidi, J. Goings, B. Peng, A. Petrone, 
 T. Henderson, D. Ranasinghe, V. G. Zakrzewski, J. Gao, N. Rega, 
 G. Zheng, W. Liang, M. Hada, M. Ehara, K. Toyota, R. Fukuda, 
 J. Hasegawa, M. Ishida, T. Nakajima, Y. Honda, O. Kitao, H. Nakai, 
 T. Vreven, K. Throssell, J. A. Montgomery, Jr., J. E. Peralta, 
 F. Ogliaro, M. J. Bearpark, J. J. Heyd, E. N. Brothers, K. N. Kudin, 
 V. N. Staroverov, T. A. Keith, R. Kobayashi, J. Normand, 
 K. Raghavachari, A. P. Rendell, J. C. Burant, S. S. Iyengar, 
 J. Tomasi, M. Cossi, J. M. Millam, M. Klene, C. Adamo, R. Cammi, 
 J. W. Ochterski, R. L. Martin, K. Morokuma, O. Farkas, 
 J. B. Foresman, and D. J. Fox, Gaussian, Inc., Wallingford CT, 2016.
 
 ******************************************
 Gaussian 16:  ES64L-G16RevA.03 25-Dec-2016
                10-Dec-2020 
 ******************************************
 %chk=JID_6686.chk
 %mem=8GB
 %nprocshared=4
 Will use up to    4 processors via shared memory.
 -----------------------------------------------------------
 # opt freq B3LYP/6-31G(d) empiricaldispersion=gd3bj scf=xqc
 -----------------------------------------------------------
 1/18=20,19=15,26=3,38=1/1,3;
 2/9=110,12=2,17=6,18=5,40=1/2;
 3/5=1,6=6,7=1,11=2,25=1,30=1,71=1,74=-5,124=41/1,2,3;
 4//1;
 5/5=2,8=3,13=1,38=5/2,8;
 6/7=2,8=2,9=2,10=2,28=1/1;
 7//1,2,3,16;
 1/18=20,19=15,26=3/3(2);
 2/9=110/2;
 99//99;
 2/9=110/2;
 3/5=1,6=6,7=1,11=2,25=1,30=1,71=1,74=-5,124=41/1,2,3;
 4/5=5,16=3,69=1/1;
 5/5=2,8=3,13=1,38=5/2,8;
 7//1,2,3,16;
 1/18=20,19=15,26=3/3(-5);
 2/9=110/2;
 6/7=2,8=2,9=2,10=2,19=2,28=1/1;
 99/9=1/99;
 ------------------------------
 CID_89813911_JID_6686_neutraal
 ------------------------------
 Symbolic Z-matrix:
 Charge =  0 Multiplicity = 1
 C                     2.492     0.004    -0.014 
 C                     1.00076  -0.0147    0.18971 
 C                     0.35635  -1.25981   0.29736 
 C                    -1.01536  -1.34234   0.5311 
 C                    -1.76235  -0.18041   0.67656 
 C                    -1.13802   1.06278   0.57902 
 C                     0.24202   1.16862   0.32014 
 C                     0.8582    2.55371   0.20958 
 C                     0.77455   3.25326  -1.17622 
 C                    -0.66541   3.39104  -1.68483 
 C                     1.38759   4.68264  -1.07224 
 N                     2.82105   4.6983   -0.82634 
 C                     3.79116   4.55559  -1.75985 
 O                     4.98795   4.57526  -1.53815 
 O                     3.3182    4.37747  -3.00444 
 O                     1.48716   2.48146  -2.15283 
 H                     2.98938   0.37584   0.88736 
 H                     2.88151  -0.99915  -0.21885 
 H                     2.76487   0.63035  -0.86703 
 H                     0.92669  -2.18111   0.19895 
 H                    -1.49634  -2.31367   0.60473 
 H                    -2.83065  -0.23989   0.86484 
 H                    -1.74316   1.95811   0.70158 
 H                     0.37978   3.19215   0.96568 
 H                     1.90771   2.49044   0.52074 
 H                    -1.30061   3.91494  -0.96342 
 H                    -0.69019   3.94846  -2.62893 
 H                    -1.10788   2.41551  -1.91125 
 H                     1.21446   5.23239  -2.00533 
 H                     0.91312   5.24929  -0.26317 
 H                     3.16293   4.7769    0.1223 
 H                     4.14192   4.30747  -3.53308 
 H                     1.94209   3.10567  -2.75205 
 

 GradGradGradGradGradGradGradGradGradGradGradGradGradGradGradGradGradGrad
 Berny optimization.
 Initialization pass.
                           ----------------------------
                           !    Initial Parameters    !
                           ! (Angstroms and Degrees)  !
 --------------------------                            --------------------------
 ! Name  Definition              Value          Derivative Info.                !
 --------------------------------------------------------------------------------
 ! R1    R(1,2)                  1.5052         estimate D2E/DX2                !
 ! R2    R(1,17)                 1.0946         estimate D2E/DX2                !
 ! R3    R(1,18)                 1.0954         estimate D2E/DX2                !
 ! R4    R(1,19)                 1.0929         estimate D2E/DX2                !
 ! R5    R(2,3)                  1.4061         estimate D2E/DX2                !
 ! R6    R(2,7)                  1.4117         estimate D2E/DX2                !
 ! R7    R(3,4)                  1.3939         estimate D2E/DX2                !
 ! R8    R(3,20)                 1.088          estimate D2E/DX2                !
 ! R9    R(4,5)                  1.389          estimate D2E/DX2                !
 ! R10   R(4,21)                 1.0864         estimate D2E/DX2                !
 ! R11   R(5,6)                  1.3946         estimate D2E/DX2                !
 ! R12   R(5,22)                 1.0864         estimate D2E/DX2                !
 ! R13   R(6,7)                  1.4081         estimate D2E/DX2                !
 ! R14   R(6,23)                 1.0876         estimate D2E/DX2                !
 ! R15   R(7,8)                  1.52           estimate D2E/DX2                !
 ! R16   R(8,9)                  1.5546         estimate D2E/DX2                !
 ! R17   R(8,24)                 1.0992         estimate D2E/DX2                !
 ! R18   R(8,25)                 1.0965         estimate D2E/DX2                !
 ! R19   R(9,10)                 1.5333         estimate D2E/DX2                !
 ! R20   R(9,11)                 1.5588         estimate D2E/DX2                !
 ! R21   R(9,16)                 1.4343         estimate D2E/DX2                !
 ! R22   R(10,26)                1.0947         estimate D2E/DX2                !
 ! R23   R(10,27)                1.0967         estimate D2E/DX2                !
 ! R24   R(10,28)                1.0949         estimate D2E/DX2                !
 ! R25   R(11,12)                1.4545         estimate D2E/DX2                !
 ! R26   R(11,29)                1.0967         estimate D2E/DX2                !
 ! R27   R(11,30)                1.0958         estimate D2E/DX2                !
 ! R28   R(12,13)                1.3539         estimate D2E/DX2                !
 ! R29   R(12,31)                1.0114         estimate D2E/DX2                !
 ! R30   R(13,14)                1.2173         estimate D2E/DX2                !
 ! R31   R(13,15)                1.3433         estimate D2E/DX2                !
 ! R32   R(15,32)                0.9813         estimate D2E/DX2                !
 ! R33   R(16,33)                0.9776         estimate D2E/DX2                !
 ! A1    A(2,1,17)             110.0574         estimate D2E/DX2                !
 ! A2    A(2,1,18)             111.4818         estimate D2E/DX2                !
 ! A3    A(2,1,19)             111.107          estimate D2E/DX2                !
 ! A4    A(17,1,18)            107.6684         estimate D2E/DX2                !
 ! A5    A(17,1,19)            109.5479         estimate D2E/DX2                !
 ! A6    A(18,1,19)            106.8631         estimate D2E/DX2                !
 ! A7    A(1,2,3)              118.3855         estimate D2E/DX2                !
 ! A8    A(1,2,7)              122.3143         estimate D2E/DX2                !
 ! A9    A(3,2,7)              119.265          estimate D2E/DX2                !
 ! A10   A(2,3,4)              121.0812         estimate D2E/DX2                !
 ! A11   A(2,3,20)             120.1758         estimate D2E/DX2                !
 ! A12   A(4,3,20)             118.743          estimate D2E/DX2                !
 ! A13   A(3,4,5)              119.819          estimate D2E/DX2                !
 ! A14   A(3,4,21)             119.9984         estimate D2E/DX2                !
 ! A15   A(5,4,21)             120.1816         estimate D2E/DX2                !
 ! A16   A(4,5,6)              119.8443         estimate D2E/DX2                !
 ! A17   A(4,5,22)             120.079          estimate D2E/DX2                !
 ! A18   A(6,5,22)             120.0767         estimate D2E/DX2                !
 ! A19   A(5,6,7)              121.2405         estimate D2E/DX2                !
 ! A20   A(5,6,23)             118.4826         estimate D2E/DX2                !
 ! A21   A(7,6,23)             120.2758         estimate D2E/DX2                !
 ! A22   A(2,7,6)              118.7332         estimate D2E/DX2                !
 ! A23   A(2,7,8)              122.6308         estimate D2E/DX2                !
 ! A24   A(6,7,8)              118.6315         estimate D2E/DX2                !
 ! A25   A(7,8,9)              116.9411         estimate D2E/DX2                !
 ! A26   A(7,8,24)             107.6263         estimate D2E/DX2                !
 ! A27   A(7,8,25)             108.3482         estimate D2E/DX2                !
 ! A28   A(9,8,24)             109.1716         estimate D2E/DX2                !
 ! A29   A(9,8,25)             109.2949         estimate D2E/DX2                !
 ! A30   A(24,8,25)            104.7686         estimate D2E/DX2                !
 ! A31   A(8,9,10)             112.7459         estimate D2E/DX2                !
 ! A32   A(8,9,11)             109.3907         estimate D2E/DX2                !
 ! A33   A(8,9,16)             109.7603         estimate D2E/DX2                !
 ! A34   A(10,9,11)            108.0027         estimate D2E/DX2                !
 ! A35   A(10,9,16)            106.8024         estimate D2E/DX2                !
 ! A36   A(11,9,16)            110.0875         estimate D2E/DX2                !
 ! A37   A(9,10,26)            111.6737         estimate D2E/DX2                !
 ! A38   A(9,10,27)            110.6372         estimate D2E/DX2                !
 ! A39   A(9,10,28)            111.5958         estimate D2E/DX2                !
 ! A40   A(26,10,27)           108.117          estimate D2E/DX2                !
 ! A41   A(26,10,28)           109.1597         estimate D2E/DX2                !
 ! A42   A(27,10,28)           105.4101         estimate D2E/DX2                !
 ! A43   A(9,11,12)            114.1264         estimate D2E/DX2                !
 ! A44   A(9,11,29)            109.9263         estimate D2E/DX2                !
 ! A45   A(9,11,30)            110.6799         estimate D2E/DX2                !
 ! A46   A(12,11,29)           107.0985         estimate D2E/DX2                !
 ! A47   A(12,11,30)           107.2375         estimate D2E/DX2                !
 ! A48   A(29,11,30)           107.4938         estimate D2E/DX2                !
 ! A49   A(11,12,13)           126.0499         estimate D2E/DX2                !
 ! A50   A(11,12,31)           119.5076         estimate D2E/DX2                !
 ! A51   A(13,12,31)           114.3747         estimate D2E/DX2                !
 ! A52   A(12,13,14)           125.2535         estimate D2E/DX2                !
 ! A53   A(12,13,15)           113.6121         estimate D2E/DX2                !
 ! A54   A(14,13,15)           121.1339         estimate D2E/DX2                !
 ! A55   A(13,15,32)           102.301          estimate D2E/DX2                !
 ! A56   A(9,16,33)            107.7568         estimate D2E/DX2                !
 ! D1    D(17,1,2,3)          -110.024          estimate D2E/DX2                !
 ! D2    D(17,1,2,7)            67.8011         estimate D2E/DX2                !
 ! D3    D(18,1,2,3)             9.3764         estimate D2E/DX2                !
 ! D4    D(18,1,2,7)          -172.7985         estimate D2E/DX2                !
 ! D5    D(19,1,2,3)           128.4592         estimate D2E/DX2                !
 ! D6    D(19,1,2,7)           -53.7157         estimate D2E/DX2                !
 ! D7    D(1,2,3,4)            177.8445         estimate D2E/DX2                !
 ! D8    D(1,2,3,20)            -2.1263         estimate D2E/DX2                !
 ! D9    D(7,2,3,4)             -0.0485         estimate D2E/DX2                !
 ! D10   D(7,2,3,20)           179.9806         estimate D2E/DX2                !
 ! D11   D(1,2,7,6)           -176.6727         estimate D2E/DX2                !
 ! D12   D(1,2,7,8)              2.5418         estimate D2E/DX2                !
 ! D13   D(3,2,7,6)              1.1339         estimate D2E/DX2                !
 ! D14   D(3,2,7,8)           -179.6516         estimate D2E/DX2                !
 ! D15   D(2,3,4,5)             -0.7506         estimate D2E/DX2                !
 ! D16   D(2,3,4,21)           179.6012         estimate D2E/DX2                !
 ! D17   D(20,3,4,5)           179.2207         estimate D2E/DX2                !
 ! D18   D(20,3,4,21)           -0.4276         estimate D2E/DX2                !
 ! D19   D(3,4,5,6)              0.4345         estimate D2E/DX2                !
 ! D20   D(3,4,5,22)          -179.6295         estimate D2E/DX2                !
 ! D21   D(21,4,5,6)          -179.9179         estimate D2E/DX2                !
 ! D22   D(21,4,5,22)            0.0181         estimate D2E/DX2                !
 ! D23   D(4,5,6,7)              0.6839         estimate D2E/DX2                !
 ! D24   D(4,5,6,23)          -179.6919         estimate D2E/DX2                !
 ! D25   D(22,5,6,7)          -179.2522         estimate D2E/DX2                !
 ! D26   D(22,5,6,23)            0.372          estimate D2E/DX2                !
 ! D27   D(5,6,7,2)             -1.4661         estimate D2E/DX2                !
 ! D28   D(5,6,7,8)            179.2876         estimate D2E/DX2                !
 ! D29   D(23,6,7,2)           178.9164         estimate D2E/DX2                !
 ! D30   D(23,6,7,8)            -0.3299         estimate D2E/DX2                !
 ! D31   D(2,7,8,9)             96.0736         estimate D2E/DX2                !
 ! D32   D(2,7,8,24)          -140.6963         estimate D2E/DX2                !
 ! D33   D(2,7,8,25)           -27.9176         estimate D2E/DX2                !
 ! D34   D(6,7,8,9)            -84.7111         estimate D2E/DX2                !
 ! D35   D(6,7,8,24)            38.519          estimate D2E/DX2                !
 ! D36   D(6,7,8,25)           151.2977         estimate D2E/DX2                !
 ! D37   D(7,8,9,10)            56.8257         estimate D2E/DX2                !
 ! D38   D(7,8,9,11)           177.014          estimate D2E/DX2                !
 ! D39   D(7,8,9,16)           -62.0998         estimate D2E/DX2                !
 ! D40   D(24,8,9,10)          -65.6076         estimate D2E/DX2                !
 ! D41   D(24,8,9,11)           54.5807         estimate D2E/DX2                !
 ! D42   D(24,8,9,16)          175.4668         estimate D2E/DX2                !
 ! D43   D(25,8,9,10)         -179.6659         estimate D2E/DX2                !
 ! D44   D(25,8,9,11)          -59.4777         estimate D2E/DX2                !
 ! D45   D(25,8,9,16)           61.4085         estimate D2E/DX2                !
 ! D46   D(8,9,10,26)           55.6429         estimate D2E/DX2                !
 ! D47   D(8,9,10,27)          176.1226         estimate D2E/DX2                !
 ! D48   D(8,9,10,28)          -66.8469         estimate D2E/DX2                !
 ! D49   D(11,9,10,26)         -65.3401         estimate D2E/DX2                !
 ! D50   D(11,9,10,27)          55.1396         estimate D2E/DX2                !
 ! D51   D(11,9,10,28)         172.1701         estimate D2E/DX2                !
 ! D52   D(16,9,10,26)         176.2764         estimate D2E/DX2                !
 ! D53   D(16,9,10,27)         -63.2439         estimate D2E/DX2                !
 ! D54   D(16,9,10,28)          53.7866         estimate D2E/DX2                !
 ! D55   D(8,9,11,12)           67.1281         estimate D2E/DX2                !
 ! D56   D(8,9,11,29)         -172.5384         estimate D2E/DX2                !
 ! D57   D(8,9,11,30)          -53.9441         estimate D2E/DX2                !
 ! D58   D(10,9,11,12)        -169.8214         estimate D2E/DX2                !
 ! D59   D(10,9,11,29)         -49.4878         estimate D2E/DX2                !
 ! D60   D(10,9,11,30)          69.1064         estimate D2E/DX2                !
 ! D61   D(16,9,11,12)         -53.559          estimate D2E/DX2                !
 ! D62   D(16,9,11,29)          66.7745         estimate D2E/DX2                !
 ! D63   D(16,9,11,30)        -174.6312         estimate D2E/DX2                !
 ! D64   D(8,9,16,33)         -141.9276         estimate D2E/DX2                !
 ! D65   D(10,9,16,33)          95.5495         estimate D2E/DX2                !
 ! D66   D(11,9,16,33)         -21.463          estimate D2E/DX2                !
 ! D67   D(9,11,12,13)          82.102          estimate D2E/DX2                !
 ! D68   D(9,11,12,31)         -94.7259         estimate D2E/DX2                !
 ! D69   D(29,11,12,13)        -39.8003         estimate D2E/DX2                !
 ! D70   D(29,11,12,31)        143.3718         estimate D2E/DX2                !
 ! D71   D(30,11,12,13)       -154.9343         estimate D2E/DX2                !
 ! D72   D(30,11,12,31)         28.2378         estimate D2E/DX2                !
 ! D73   D(11,12,13,14)        179.754          estimate D2E/DX2                !
 ! D74   D(11,12,13,15)         -0.4974         estimate D2E/DX2                !
 ! D75   D(31,12,13,14)         -3.2766         estimate D2E/DX2                !
 ! D76   D(31,12,13,15)        176.4719         estimate D2E/DX2                !
 ! D77   D(12,13,15,32)        179.2488         estimate D2E/DX2                !
 ! D78   D(14,13,15,32)         -0.991          estimate D2E/DX2                !
 --------------------------------------------------------------------------------
 Trust Radius=3.00D-01 FncErr=1.00D-07 GrdErr=1.00D-06 EigMax=2.50D+02 EigMin=1.00D-04
 Number of steps in this run=    177 maximum allowed number of steps=    198.
 GradGradGradGradGradGradGradGradGradGradGradGradGradGradGradGradGradGrad

                          Input orientation:                          
 ---------------------------------------------------------------------
 Center     Atomic      Atomic             Coordinates (Angstroms)
 Number     Number       Type             X           Y           Z
 ---------------------------------------------------------------------
      1          6           0        2.492000    0.004000   -0.014000
      2          6           0        1.000760   -0.014700    0.189710
      3          6           0        0.356350   -1.259810    0.297360
      4          6           0       -1.015360   -1.342340    0.531100
      5          6           0       -1.762350   -0.180410    0.676560
      6          6           0       -1.138020    1.062780    0.579020
      7          6           0        0.242020    1.168620    0.320140
      8          6           0        0.858200    2.553710    0.209580
      9          6           0        0.774550    3.253260   -1.176220
     10          6           0       -0.665410    3.391040   -1.684830
     11          6           0        1.387590    4.682640   -1.072240
     12          7           0        2.821050    4.698300   -0.826340
     13          6           0        3.791160    4.555590   -1.759850
     14          8           0        4.987950    4.575260   -1.538150
     15          8           0        3.318200    4.377470   -3.004440
     16          8           0        1.487160    2.481460   -2.152830
     17          1           0        2.989380    0.375840    0.887360
     18          1           0        2.881510   -0.999150   -0.218850
     19          1           0        2.764870    0.630350   -0.867030
     20          1           0        0.926690   -2.181110    0.198950
     21          1           0       -1.496340   -2.313670    0.604730
     22          1           0       -2.830650   -0.239890    0.864840
     23          1           0       -1.743160    1.958110    0.701580
     24          1           0        0.379780    3.192150    0.965680
     25          1           0        1.907710    2.490440    0.520740
     26          1           0       -1.300610    3.914940   -0.963420
     27          1           0       -0.690190    3.948460   -2.628930
     28          1           0       -1.107880    2.415510   -1.911250
     29          1           0        1.214460    5.232390   -2.005330
     30          1           0        0.913120    5.249290   -0.263170
     31          1           0        3.162930    4.776900    0.122300
     32          1           0        4.141920    4.307470   -3.533080
     33          1           0        1.942090    3.105670   -2.752050
 ---------------------------------------------------------------------
                    Distance matrix (angstroms):
                    1          2          3          4          5
     1  C    0.000000
     2  C    1.505206   0.000000
     3  C    2.501032   1.406112   0.000000
     4  C    3.796227   2.438015   1.393928   0.000000
     5  C    4.313974   2.810562   2.407859   1.388969   0.000000
     6  C    3.827497   2.426295   2.776130   2.408722   1.394569
     7  C    2.555465   1.411717   2.431227   2.816102   2.442215
     8  C    3.036497   2.572440   3.847401   4.335067   3.815857
     9  C    3.854618   3.549155   4.765934   5.219029   4.653896
    10  C    4.922698   4.229549   5.157856   5.238101   4.419807
    11  C    4.922323   4.879258   6.184818   6.681710   6.052246
    12  N    4.775419   5.153463   6.544962   7.283544   6.860618
    13  C    5.045075   5.698655   7.060376   7.945858   7.694626
    14  O    5.426713   6.320674   7.672604   8.679834   8.549145
    15  O    5.362143   5.904598   7.173100   7.999751   7.754742
    16  O    3.423756   3.457585   4.612945   5.299767   5.064614
    17  H    1.094578   2.143326   3.155360   4.372300   4.788819
    18  H    1.095441   2.161778   2.590531   3.983190   4.799743
    19  H    1.092901   2.155197   3.275588   4.487361   4.851363
    20  H    2.696340   2.167696   1.088010   2.141359   3.385535
    21  H    4.654168   3.419505   2.153499   1.086391   2.150981
    22  H    5.400226   3.896949   3.394000   2.149897   1.086394
    23  H    4.718811   3.418053   3.863463   3.384040   2.138752
    24  H    3.947853   3.357325   4.501905   4.764124   4.005805
    25  H    2.609545   2.684747   4.064602   4.820233   4.541702
    26  H    5.529986   4.697668   5.577914   5.473020   4.435609
    27  H    5.702890   5.148852   6.065022   6.171231   5.396606
    28  H    4.730124   3.842696   4.530994   4.482753   3.723425
    29  H    5.738777   5.691733   6.941714   7.391390   6.734414
    30  H    5.483431   5.284162   6.556872   6.913717   6.125592
    31  H    4.821753   5.257276   6.659535   7.420938   7.010029
    32  H    5.798794   6.512081   7.745800   8.662300   8.527751
    33  H    4.173688   4.390531   5.556158   6.269799   6.023003
                    6          7          8          9         10
     6  C    0.000000
     7  C    1.408095   0.000000
     8  C    2.518780   1.519992   0.000000
     9  C    3.396615   2.620764   1.554609   0.000000
    10  C    3.281642   3.127696   2.571244   1.533347   0.000000
    11  C    4.712616   3.949606   2.540799   1.558768   2.501661
    12  N    5.555743   4.519342   3.086288   2.529569   3.821170
    13  C    6.478183   5.328632   4.060595   3.337158   4.606823
    14  O    7.372071   6.130440   4.918949   4.430735   5.777921
    15  O    6.609558   5.550895   4.439327   3.328121   4.310866
    16  O    4.045643   3.064230   2.445770   1.434314   2.383258
    17  H    4.195520   2.915172   3.121607   4.176527   5.391204
    18  H    4.587458   3.457838   4.110979   4.841366   5.831253
    19  H    4.184568   2.839697   2.914411   3.307057   4.478507
    20  H    3.863975   3.421133   4.735327   5.607728   6.093625
    21  H    3.395507   3.902465   5.421383   6.270521   6.202922
    22  H    2.154910   3.423726   4.673455   5.418993   4.936875
    23  H    1.087580   2.170191   2.713646   3.397412   2.984926
    24  H    2.643377   2.128467   1.099172   2.178833   2.856078
    25  H    3.364236   2.135877   1.096492   2.178444   3.506646
    26  H    3.246594   3.401398   2.808796   2.188468   1.094707
    27  H    4.338046   4.158550   3.521360   2.176955   1.096657
    28  H    2.834119   2.890686   2.895253   2.187610   1.094854
    29  H    5.440466   4.782016   3.494005   2.190411   2.650887
    30  H    4.737439   4.176421   2.737272   2.199318   2.822405
    31  H    5.701004   4.646562   3.203431   3.116407   4.454494
    32  H    7.437415   6.317349   5.278825   4.243269   5.231280
    33  H    4.975591   4.010081   3.201676   1.966767   2.831863
                   11         12         13         14         15
    11  C    0.000000
    12  N    1.454483   0.000000
    13  C    2.503218   1.353854   0.000000
    14  O    3.631968   2.284134   1.217310   0.000000
    15  O    2.748414   2.257036   1.343288   2.230962   0.000000
    16  O    2.454136   2.907442   3.124878   4.125210   2.769982
    17  H    4.995427   4.652823   5.012074   5.245237   5.591715
    18  H    5.936565   5.730064   5.835862   6.103416   6.071100
    19  H    4.284865   4.068541   4.154264   4.577641   4.349207
    20  H    6.995671   7.208752   7.577943   8.072167   7.680885
    21  H    7.750976   8.357963   8.985301   9.700274   8.998736
    22  H    6.765880   7.693343   8.586850   9.491603   8.608118
    23  H    4.513435   5.538519   6.590466   7.561330   6.723485
    24  H    2.718522   3.382251   4.574385   5.423780   5.079483
    25  H    2.759321   2.742893   3.607398   4.251280   4.239960
    26  H    2.797789   4.197681   5.193347   6.349199   5.070809
    27  H    2.698050   4.017511   4.605041   5.815836   4.048734
    28  H    3.474361   4.671686   5.348220   6.477875   4.963319
    29  H    1.096748   2.063105   2.675388   3.858666   2.480893
    30  H    1.095814   2.064206   3.317286   4.322514   3.749539
    31  H    2.141878   1.011424   1.996532   2.475571   3.155972
    32  H    3.712522   3.037085   1.824539   2.183397   0.981262
    33  H    2.369824   2.649038   2.550645   3.593120   1.890729
                   16         17         18         19         20
    16  O    0.000000
    17  H    3.991623   0.000000
    18  H    4.218902   1.768031   0.000000
    19  H    2.590836   1.786915   1.757559   0.000000
    20  H    5.252100   3.356574   2.322263   3.524135   0.000000
    21  H    6.284798   5.237846   4.644547   5.384352   2.460346
    22  H    5.929213   5.852553   5.863415   5.921700   4.281279
    23  H    4.342409   4.993499   5.565982   4.954374   4.951149
    24  H    3.384742   3.840280   5.022824   3.950987   5.455173
    25  H    2.706459   2.403321   3.697637   2.473977   4.784279
    26  H    3.352793   5.861282   6.495598   5.227423   6.593466
    27  H    2.668260   6.218291   6.560821   5.104075   6.941386
    28  H    2.607095   5.364700   5.517187   4.390374   5.451728
    29  H    2.768346   5.924869   6.693479   4.987812   7.739615
    30  H    3.400179   5.420802   6.551300   5.012807   7.444769
    31  H    3.640531   4.470432   5.792956   4.281484   7.308936
    32  H    3.505304   6.027135   6.382239   4.746083   8.146620
    33  H    0.977581   4.668414   4.914179   3.218303   6.139176
                   21         22         23         24         25
    21  H    0.000000
    22  H    2.479638   0.000000
    23  H    4.280001   2.457741   0.000000
    24  H    5.827878   4.700631   2.469712   0.000000
    25  H    5.888470   5.479522   3.693904   1.739235   0.000000
    26  H    6.425962   4.790216   2.607155   2.658489   3.811200
    27  H    7.093709   5.859204   4.020266   3.825972   4.335358
    28  H    5.370866   4.210197   2.727577   3.330620   3.874787
    29  H    8.432311   7.385570   5.176465   3.699482   3.792086
    30  H    7.984805   6.739386   4.338022   2.454862   3.035618
    31  H    8.498101   7.851277   5.687782   3.311895   2.638604
    32  H    9.630729   9.414718   7.621417   5.969630   4.972600
    33  H    7.242929   6.859571   5.179336   4.033585   3.330292
                   26         27         28         29         30
    26  H    0.000000
    27  H    1.774165   0.000000
    28  H    1.784325   1.743406   0.000000
    29  H    3.024372   2.380135   3.651976   0.000000
    30  H    2.677955   3.139997   3.851093   1.768110   0.000000
    31  H    4.673858   4.806466   5.286900   2.920756   2.330962
    32  H    6.031448   4.929063   5.811217   3.429216   4.690894
    33  H    3.790675   2.766650   3.238145   2.368538   3.442152
                   31         32         33
    31  H    0.000000
    32  H    3.813212   0.000000
    33  H    3.541941   2.625563   0.000000
 Stoichiometry    C12H17NO3
 Framework group  C1[X(C12H17NO3)]
 Deg. of freedom    93
 Full point group                 C1      NOp   1
 Largest Abelian subgroup         C1      NOp   1
 Largest concise Abelian subgroup C1      NOp   1
                         Standard orientation:                         
 ---------------------------------------------------------------------
 Center     Atomic      Atomic             Coordinates (Angstroms)
 Number     Number       Type             X           Y           Z
 ---------------------------------------------------------------------
      1          6           0       -1.166821    2.373712   -0.036734
      2          6           0       -2.116104    1.205642   -0.047540
      3          6           0       -3.445406    1.420806    0.357198
      4          6           0       -4.382812    0.389607    0.326677
      5          6           0       -4.009517   -0.870023   -0.124120
      6          6           0       -2.696776   -1.099099   -0.535287
      7          6           0       -1.728652   -0.077605   -0.490377
      8          6           0       -0.311485   -0.397076   -0.937538
      9          6           0        0.635176   -1.030124    0.120712
     10          6           0        0.077394   -2.329745    0.713177
     11          6           0        2.008988   -1.353089   -0.541174
     12          7           0        2.767017   -0.178012   -0.941305
     13          6           0        3.547361    0.579375   -0.134863
     14          8           0        4.179429    1.558506   -0.486482
     15          8           0        3.572077    0.157881    1.140344
     16          8           0        0.817105   -0.120364    1.214556
     17          1           0       -0.915801    2.662942   -1.062130
     18          1           0       -1.609845    3.246139    0.455802
     19          1           0       -0.251589    2.132016    0.509495
     20          1           0       -3.759981    2.403824    0.701414
     21          1           0       -5.403634    0.573791    0.649544
     22          1           0       -4.738199   -1.675193   -0.155360
     23          1           0       -2.429892   -2.092326   -0.888988
     24          1           0       -0.379655   -1.066057   -1.807017
     25          1           0        0.143042    0.521733   -1.326756
     26          1           0       -0.154196   -3.062689   -0.066273
     27          1           0        0.800625   -2.781949    1.402455
     28          1           0       -0.820416   -2.146663    1.312445
     29          1           0        2.636699   -1.919190    0.157656
     30          1           0        1.871845   -1.971130   -1.435615
     31          1           0        2.695220    0.161410   -1.891366
     32          1           0        4.181104    0.801723    1.561566
     33          1           0        1.748589   -0.184763    1.504131
 ---------------------------------------------------------------------
 Rotational constants (GHZ):           1.0968994           0.2815767           0.2490290
 Standard basis: 6-31G(d) (6D, 7F)
 There are   274 symmetry adapted cartesian basis functions of A   symmetry.
 There are   274 symmetry adapted basis functions of A   symmetry.
   274 basis functions,   516 primitive gaussians,   274 cartesian basis functions
    60 alpha electrons       60 beta electrons
       nuclear repulsion energy      1131.4193328214 Hartrees.
 NAtoms=   33 NActive=   33 NUniq=   33 SFac= 1.00D+00 NAtFMM=   60 NAOKFM=F Big=F
 Integral buffers will be    131072 words long.
 Raffenetti 2 integral format.
 Two-electron integral symmetry is turned on.
 Nuclear repulsion after empirical dispersion term =     1131.3551335717 Hartrees.
 One-electron integrals computed using PRISM.
 NBasis=   274 RedAO= T EigKep=  4.08D-04  NBF=   274
 NBsUse=   274 1.00D-06 EigRej= -1.00D+00 NBFU=   274
 ExpMin= 1.61D-01 ExpMax= 5.48D+03 ExpMxC= 8.25D+02 IAcc=3 IRadAn=         5 AccDes= 0.00D+00
 Harris functional with IExCor=  402 and IRadAn=       5 diagonalized for initial guess.
 HarFok:  IExCor=  402 AccDes= 0.00D+00 IRadAn=         5 IDoV= 1 UseB2=F ITyADJ=14
 ICtDFT=  3500011 ScaDFX=  1.000000  1.000000  1.000000  1.000000
 FoFCou: FMM=F IPFlag=           0 FMFlag=      100000 FMFlg1=           0
         NFxFlg=           0 DoJE=T BraDBF=F KetDBF=T FulRan=T
         wScrn=  0.000000 ICntrl=       500 IOpCl=  0 I1Cent=   200000004 NGrid=           0
         NMat0=    1 NMatS0=      1 NMatT0=    0 NMatD0=    1 NMtDS0=    0 NMtDT0=    0
 Petite list used in FoFCou.
 Keep R1 ints in memory in canonical form, NReq=720121926.
 Requested convergence on RMS density matrix=1.00D-08 within  32 cycles.
 Requested convergence on MAX density matrix=1.00D-06.
 Requested convergence on             energy=1.00D-06.
 No special actions if energy rises.
 Integral accuracy reduced to 1.0D-05 until final iterations.
 Initial convergence to 1.0D-05 achieved.  Increase integral accuracy.
 SCF Done:  E(RB3LYP) =  -748.021943237     A.U. after   14 cycles
            NFock= 14  Conv=0.61D-08     -V/T= 2.0094
 QCSCF skips out because SCF is already converged.

 **********************************************************************

            Population analysis using the SCF density.

 **********************************************************************

 Orbital symmetries:
       Occupied  (A) (A) (A) (A) (A) (A) (A) (A) (A) (A) (A) (A)
                 (A) (A) (A) (A) (A) (A) (A) (A) (A) (A) (A) (A)
                 (A) (A) (A) (A) (A) (A) (A) (A) (A) (A) (A) (A)
                 (A) (A) (A) (A) (A) (A) (A) (A) (A) (A) (A) (A)
                 (A) (A) (A) (A) (A) (A) (A) (A) (A) (A) (A) (A)
       Virtual   (A) (A) (A) (A) (A) (A) (A) (A) (A) (A) (A) (A)
                 (A) (A) (A) (A) (A) (A) (A) (A) (A) (A) (A) (A)
                 (A) (A) (A) (A) (A) (A) (A) (A) (A) (A) (A) (A)
                 (A) (A) (A) (A) (A) (A) (A) (A) (A) (A) (A) (A)
                 (A) (A) (A) (A) (A) (A) (A) (A) (A) (A) (A) (A)
                 (A) (A) (A) (A) (A) (A) (A) (A) (A) (A) (A) (A)
                 (A) (A) (A) (A) (A) (A) (A) (A) (A) (A) (A) (A)
                 (A) (A) (A) (A) (A) (A) (A) (A) (A) (A) (A) (A)
                 (A) (A) (A) (A) (A) (A) (A) (A) (A) (A) (A) (A)
                 (A) (A) (A) (A) (A) (A) (A) (A) (A) (A) (A) (A)
                 (A) (A) (A) (A) (A) (A) (A) (A) (A) (A) (A) (A)
                 (A) (A) (A) (A) (A) (A) (A) (A) (A) (A) (A) (A)
                 (A) (A) (A) (A) (A) (A) (A) (A) (A) (A) (A) (A)
                 (A) (A) (A) (A) (A) (A) (A) (A) (A) (A) (A) (A)
                 (A) (A) (A) (A) (A) (A) (A) (A) (A) (A) (A) (A)
                 (A) (A) (A) (A) (A) (A) (A) (A) (A) (A) (A) (A)
                 (A) (A) (A) (A) (A) (A) (A) (A) (A) (A) (A) (A)
                 (A) (A) (A) (A) (A) (A) (A) (A) (A) (A)
 The electronic state is 1-A.
 Alpha  occ. eigenvalues --  -19.21330 -19.13335 -19.12224 -14.37409 -10.34366
 Alpha  occ. eigenvalues --  -10.25011 -10.23766 -10.18856 -10.18749 -10.18679
 Alpha  occ. eigenvalues --  -10.17947 -10.17776 -10.17717 -10.17626 -10.17353
 Alpha  occ. eigenvalues --  -10.16764  -1.12946  -1.01592  -1.01118  -0.94009
 Alpha  occ. eigenvalues --   -0.84775  -0.79368  -0.76114  -0.74598  -0.70465
 Alpha  occ. eigenvalues --   -0.69014  -0.66572  -0.65143  -0.59341  -0.58287
 Alpha  occ. eigenvalues --   -0.55597  -0.54082  -0.51783  -0.50401  -0.48870
 Alpha  occ. eigenvalues --   -0.48346  -0.46778  -0.45593  -0.45150  -0.43595
 Alpha  occ. eigenvalues --   -0.42317  -0.41643  -0.41155  -0.40247  -0.39725
 Alpha  occ. eigenvalues --   -0.38627  -0.38594  -0.37276  -0.36576  -0.35857
 Alpha  occ. eigenvalues --   -0.34668  -0.33913  -0.32849  -0.32094  -0.31399
 Alpha  occ. eigenvalues --   -0.28050  -0.26734  -0.25868  -0.23449  -0.22594
 Alpha virt. eigenvalues --    0.00481   0.01217   0.04063   0.05525   0.08144
 Alpha virt. eigenvalues --    0.09156   0.10696   0.11212   0.12833   0.13468
 Alpha virt. eigenvalues --    0.13812   0.15337   0.16093   0.16352   0.16958
 Alpha virt. eigenvalues --    0.17768   0.18096   0.19453   0.20684   0.21225
 Alpha virt. eigenvalues --    0.21394   0.22336   0.23154   0.24212   0.25308
 Alpha virt. eigenvalues --    0.25767   0.26086   0.27153   0.27861   0.32641
 Alpha virt. eigenvalues --    0.33629   0.35156   0.36243   0.36946   0.40172
 Alpha virt. eigenvalues --    0.48777   0.50222   0.50608   0.51696   0.52492
 Alpha virt. eigenvalues --    0.53506   0.54400   0.55258   0.55875   0.56780
 Alpha virt. eigenvalues --    0.57720   0.58619   0.59158   0.60005   0.60703
 Alpha virt. eigenvalues --    0.61173   0.61797   0.63077   0.63596   0.65061
 Alpha virt. eigenvalues --    0.65332   0.66474   0.67544   0.68356   0.70037
 Alpha virt. eigenvalues --    0.71419   0.73166   0.74669   0.76644   0.77073
 Alpha virt. eigenvalues --    0.78802   0.79618   0.81870   0.82678   0.83698
 Alpha virt. eigenvalues --    0.84061   0.84247   0.84825   0.85868   0.86679
 Alpha virt. eigenvalues --    0.86804   0.89173   0.89494   0.89958   0.91735
 Alpha virt. eigenvalues --    0.92098   0.92806   0.93667   0.94417   0.94918
 Alpha virt. eigenvalues --    0.96035   0.96809   0.98008   0.99429   1.00579
 Alpha virt. eigenvalues --    1.01009   1.03072   1.05410   1.07060   1.07961
 Alpha virt. eigenvalues --    1.09110   1.11324   1.13484   1.14814   1.15036
 Alpha virt. eigenvalues --    1.17094   1.19862   1.22854   1.23586   1.25564
 Alpha virt. eigenvalues --    1.27820   1.28330   1.31086   1.36368   1.37523
 Alpha virt. eigenvalues --    1.38772   1.39938   1.41436   1.44610   1.46001
 Alpha virt. eigenvalues --    1.46540   1.46901   1.48791   1.50275   1.51591
 Alpha virt. eigenvalues --    1.53988   1.56338   1.62190   1.63417   1.66369
 Alpha virt. eigenvalues --    1.68853   1.72823   1.75698   1.76068   1.78459
 Alpha virt. eigenvalues --    1.78933   1.80678   1.81361   1.81930   1.83400
 Alpha virt. eigenvalues --    1.84820   1.85830   1.87859   1.89293   1.90550
 Alpha virt. eigenvalues --    1.92147   1.92456   1.92751   1.93612   1.93801
 Alpha virt. eigenvalues --    1.97267   1.99152   2.00339   2.02446   2.03595
 Alpha virt. eigenvalues --    2.05235   2.07259   2.09309   2.10922   2.14381
 Alpha virt. eigenvalues --    2.16608   2.20256   2.20710   2.21796   2.22573
 Alpha virt. eigenvalues --    2.23709   2.25219   2.26509   2.27605   2.30630
 Alpha virt. eigenvalues --    2.32131   2.32798   2.33716   2.35472   2.37717
 Alpha virt. eigenvalues --    2.39147   2.43055   2.46467   2.48950   2.50125
 Alpha virt. eigenvalues --    2.54646   2.57560   2.59157   2.61756   2.63593
 Alpha virt. eigenvalues --    2.66616   2.67331   2.68248   2.70602   2.72848
 Alpha virt. eigenvalues --    2.75040   2.76149   2.78411   2.79312   2.80355
 Alpha virt. eigenvalues --    2.81641   2.93783   2.96900   3.00624   3.09780
 Alpha virt. eigenvalues --    3.10761   3.14407   3.41852   3.87362   3.93274
 Alpha virt. eigenvalues --    4.00859   4.10246   4.12904   4.14247   4.17528
 Alpha virt. eigenvalues --    4.22371   4.27972   4.33792   4.39905   4.40934
 Alpha virt. eigenvalues --    4.44467   4.50798   4.71648   4.78000
          Condensed to atoms (all electrons):
               1          2          3          4          5          6
     1  C    5.275983   0.349021  -0.069667   0.008424  -0.000005   0.008969
     2  C    0.349021   4.696480   0.523235  -0.025217  -0.040297  -0.017346
     3  C   -0.069667   0.523235   4.986129   0.520486  -0.028176  -0.060896
     4  C    0.008424  -0.025217   0.520486   4.869345   0.552956  -0.027547
     5  C   -0.000005  -0.040297  -0.028176   0.552956   4.871892   0.519054
     6  C    0.008969  -0.017346  -0.060896  -0.027547   0.519054   5.015507
     7  C   -0.065720   0.550416  -0.009799  -0.042096  -0.022233   0.504566
     8  C   -0.016511  -0.058882   0.008578  -0.000015   0.007040  -0.072351
     9  C   -0.000039  -0.002000  -0.000001   0.000022   0.000045  -0.006331
    10  C   -0.000035  -0.000040  -0.000004   0.000012  -0.000348  -0.000177
    11  C   -0.000056   0.000050   0.000003  -0.000000   0.000003   0.000027
    12  N   -0.000047   0.000006  -0.000000   0.000000  -0.000000  -0.000003
    13  C   -0.000027   0.000001   0.000000  -0.000000  -0.000000   0.000000
    14  O   -0.000001   0.000000   0.000000  -0.000000   0.000000   0.000000
    15  O    0.000000  -0.000000   0.000000  -0.000000   0.000000   0.000000
    16  O   -0.006795   0.003437   0.000021  -0.000002   0.000007  -0.000311
    17  H    0.356903  -0.028348  -0.000167  -0.000246   0.000047  -0.000100
    18  H    0.361534  -0.029995  -0.003118   0.000259   0.000009  -0.000171
    19  H    0.349917  -0.021896   0.001755  -0.000207   0.000029  -0.000122
    20  H   -0.011282  -0.037343   0.351363  -0.047834   0.004803   0.000632
    21  H   -0.000217   0.003735  -0.039614   0.353813  -0.043501   0.004656
    22  H    0.000010   0.001052   0.004554  -0.043087   0.354395  -0.039839
    23  H   -0.000159   0.004348   0.000695   0.004801  -0.044966   0.352033
    24  H    0.000008   0.003864  -0.000175   0.000004   0.000212  -0.006672
    25  H    0.006863  -0.012176  -0.000047   0.000017  -0.000232   0.005030
    26  H    0.000002  -0.000014  -0.000001   0.000001   0.000039  -0.000418
    27  H    0.000000   0.000003  -0.000001  -0.000000   0.000002   0.000096
    28  H   -0.000011   0.000317  -0.000047  -0.000024   0.000315   0.004283
    29  H    0.000001  -0.000000  -0.000000   0.000000  -0.000000  -0.000004
    30  H    0.000002  -0.000005  -0.000000   0.000000  -0.000000  -0.000013
    31  H   -0.000002  -0.000001  -0.000000   0.000000  -0.000000   0.000000
    32  H    0.000000  -0.000000  -0.000000   0.000000  -0.000000   0.000000
    33  H    0.000271  -0.000098  -0.000001   0.000000  -0.000000  -0.000005
               7          8          9         10         11         12
     1  C   -0.065720  -0.016511  -0.000039  -0.000035  -0.000056  -0.000047
     2  C    0.550416  -0.058882  -0.002000  -0.000040   0.000050   0.000006
     3  C   -0.009799   0.008578  -0.000001  -0.000004   0.000003  -0.000000
     4  C   -0.042096  -0.000015   0.000022   0.000012  -0.000000   0.000000
     5  C   -0.022233   0.007040   0.000045  -0.000348   0.000003  -0.000000
     6  C    0.504566  -0.072351  -0.006331  -0.000177   0.000027  -0.000003
     7  C    4.724078   0.363579  -0.029516  -0.008568   0.003702   0.000053
     8  C    0.363579   5.304484   0.342919  -0.072610  -0.051823  -0.003729
     9  C   -0.029516   0.342919   4.676083   0.366637   0.342575  -0.063090
    10  C   -0.008568  -0.072610   0.366637   5.239442  -0.067338   0.004439
    11  C    0.003702  -0.051823   0.342575  -0.067338   5.103226   0.245984
    12  N    0.000053  -0.003729  -0.063090   0.004439   0.245984   7.005416
    13  C   -0.000021  -0.001218  -0.000684   0.000587  -0.025339   0.329368
    14  O   -0.000000  -0.000002   0.000022  -0.000000   0.002340  -0.088350
    15  O    0.000001  -0.000068  -0.000283  -0.000098   0.001635  -0.099542
    16  O   -0.000336  -0.059471   0.260191  -0.068157  -0.037443  -0.004552
    17  H   -0.002902  -0.000240  -0.000083   0.000000   0.000019  -0.000019
    18  H    0.003165   0.000366   0.000001   0.000001  -0.000000  -0.000000
    19  H   -0.004271  -0.000261   0.000052   0.000157  -0.000029   0.000088
    20  H    0.005128  -0.000152  -0.000001   0.000000  -0.000000   0.000000
    21  H    0.001057   0.000010   0.000000  -0.000000   0.000000   0.000000
    22  H    0.003560  -0.000201  -0.000002  -0.000000  -0.000000   0.000000
    23  H   -0.043700  -0.008464  -0.000391   0.000745  -0.000075  -0.000000
    24  H   -0.031433   0.343044  -0.032583  -0.001412  -0.004351   0.000424
    25  H   -0.021675   0.336589  -0.029907   0.006383  -0.010702   0.008250
    26  H   -0.000276   0.000834  -0.026989   0.337120   0.000047  -0.000006
    27  H    0.000202   0.005758  -0.024496   0.355991  -0.008860   0.000121
    28  H    0.004243  -0.006569  -0.018333   0.365830   0.004873  -0.000109
    29  H   -0.000053   0.005459  -0.039160  -0.005654   0.370348  -0.040363
    30  H    0.000011  -0.003624  -0.033159   0.001739   0.352600  -0.030431
    31  H    0.000001   0.001217   0.000221  -0.000065  -0.025238   0.315085
    32  H   -0.000000   0.000003  -0.000000   0.000001  -0.000373   0.009097
    33  H   -0.000013   0.006774  -0.025743  -0.000138  -0.006030   0.000320
              13         14         15         16         17         18
     1  C   -0.000027  -0.000001   0.000000  -0.006795   0.356903   0.361534
     2  C    0.000001   0.000000  -0.000000   0.003437  -0.028348  -0.029995
     3  C    0.000000   0.000000   0.000000   0.000021  -0.000167  -0.003118
     4  C   -0.000000  -0.000000  -0.000000  -0.000002  -0.000246   0.000259
     5  C   -0.000000   0.000000   0.000000   0.000007   0.000047   0.000009
     6  C    0.000000   0.000000   0.000000  -0.000311  -0.000100  -0.000171
     7  C   -0.000021  -0.000000   0.000001  -0.000336  -0.002902   0.003165
     8  C   -0.001218  -0.000002  -0.000068  -0.059471  -0.000240   0.000366
     9  C   -0.000684   0.000022  -0.000283   0.260191  -0.000083   0.000001
    10  C    0.000587  -0.000000  -0.000098  -0.068157   0.000000   0.000001
    11  C   -0.025339   0.002340   0.001635  -0.037443   0.000019  -0.000000
    12  N    0.329368  -0.088350  -0.099542  -0.004552  -0.000019  -0.000000
    13  C    4.125207   0.612802   0.255704   0.011360   0.000000   0.000000
    14  O    0.612802   8.059371  -0.092353  -0.000054   0.000000   0.000000
    15  O    0.255704  -0.092353   8.277699  -0.015667   0.000000   0.000000
    16  O    0.011360  -0.000054  -0.015667   8.336704   0.000082   0.000060
    17  H    0.000000   0.000000   0.000000   0.000082   0.575781  -0.028723
    18  H    0.000000   0.000000   0.000000   0.000060  -0.028723   0.566835
    19  H    0.000244  -0.000002  -0.000011   0.016513  -0.028955  -0.025838
    20  H    0.000000  -0.000000  -0.000000  -0.000000   0.000299   0.007210
    21  H   -0.000000  -0.000000  -0.000000  -0.000000   0.000003  -0.000015
    22  H    0.000000   0.000000  -0.000000   0.000000  -0.000000  -0.000000
    23  H   -0.000000  -0.000000  -0.000000   0.000022   0.000000   0.000003
    24  H    0.000054   0.000000  -0.000000   0.003239   0.000124  -0.000003
    25  H    0.000944  -0.000047  -0.000043  -0.000568   0.003387  -0.000070
    26  H   -0.000025  -0.000000   0.000002   0.004460   0.000000  -0.000000
    27  H   -0.000052  -0.000000  -0.000032   0.000264  -0.000000  -0.000000
    28  H   -0.000004  -0.000000   0.000002   0.000484   0.000000  -0.000000
    29  H   -0.008730   0.000026   0.005827  -0.001492  -0.000000  -0.000000
    30  H    0.003521  -0.000078   0.000097   0.003133  -0.000000  -0.000000
    31  H   -0.021677   0.003700   0.003837  -0.000028   0.000002   0.000000
    32  H   -0.009379   0.014738   0.227227   0.000479  -0.000000  -0.000000
    33  H   -0.003260   0.000150   0.033554   0.222013  -0.000006  -0.000003
              19         20         21         22         23         24
     1  C    0.349917  -0.011282  -0.000217   0.000010  -0.000159   0.000008
     2  C   -0.021896  -0.037343   0.003735   0.001052   0.004348   0.003864
     3  C    0.001755   0.351363  -0.039614   0.004554   0.000695  -0.000175
     4  C   -0.000207  -0.047834   0.353813  -0.043087   0.004801   0.000004
     5  C    0.000029   0.004803  -0.043501   0.354395  -0.044966   0.000212
     6  C   -0.000122   0.000632   0.004656  -0.039839   0.352033  -0.006672
     7  C   -0.004271   0.005128   0.001057   0.003560  -0.043700  -0.031433
     8  C   -0.000261  -0.000152   0.000010  -0.000201  -0.008464   0.343044
     9  C    0.000052  -0.000001   0.000000  -0.000002  -0.000391  -0.032583
    10  C    0.000157   0.000000  -0.000000  -0.000000   0.000745  -0.001412
    11  C   -0.000029  -0.000000   0.000000  -0.000000  -0.000075  -0.004351
    12  N    0.000088   0.000000   0.000000   0.000000  -0.000000   0.000424
    13  C    0.000244   0.000000  -0.000000   0.000000  -0.000000   0.000054
    14  O   -0.000002  -0.000000  -0.000000   0.000000  -0.000000   0.000000
    15  O   -0.000011  -0.000000  -0.000000  -0.000000  -0.000000  -0.000000
    16  O    0.016513  -0.000000  -0.000000   0.000000   0.000022   0.003239
    17  H   -0.028955   0.000299   0.000003  -0.000000   0.000000   0.000124
    18  H   -0.025838   0.007210  -0.000015  -0.000000   0.000003  -0.000003
    19  H    0.523665   0.000151   0.000003  -0.000000  -0.000003   0.000056
    20  H    0.000151   0.612176  -0.005547  -0.000210   0.000019   0.000003
    21  H    0.000003  -0.005547   0.609076  -0.005713  -0.000211  -0.000000
    22  H   -0.000000  -0.000210  -0.005713   0.609643  -0.005587  -0.000009
    23  H   -0.000003   0.000019  -0.000211  -0.005587   0.616264   0.004730
    24  H    0.000056   0.000003  -0.000000  -0.000009   0.004730   0.618638
    25  H    0.000109  -0.000006  -0.000000   0.000003   0.000102  -0.035905
    26  H   -0.000006   0.000000   0.000000  -0.000003   0.002093   0.000657
    27  H   -0.000001   0.000000  -0.000000   0.000000   0.000034  -0.000028
    28  H    0.000015  -0.000000   0.000000  -0.000006  -0.000208   0.000192
    29  H   -0.000002   0.000000  -0.000000   0.000000   0.000003   0.000018
    30  H   -0.000007   0.000000   0.000000  -0.000000  -0.000007   0.004331
    31  H   -0.000003   0.000000  -0.000000   0.000000   0.000000   0.000092
    32  H    0.000000   0.000000   0.000000   0.000000   0.000000  -0.000000
    33  H   -0.000501   0.000000   0.000000  -0.000000   0.000000  -0.000253
              25         26         27         28         29         30
     1  C    0.006863   0.000002   0.000000  -0.000011   0.000001   0.000002
     2  C   -0.012176  -0.000014   0.000003   0.000317  -0.000000  -0.000005
     3  C   -0.000047  -0.000001  -0.000001  -0.000047  -0.000000  -0.000000
     4  C    0.000017   0.000001  -0.000000  -0.000024   0.000000   0.000000
     5  C   -0.000232   0.000039   0.000002   0.000315  -0.000000  -0.000000
     6  C    0.005030  -0.000418   0.000096   0.004283  -0.000004  -0.000013
     7  C   -0.021675  -0.000276   0.000202   0.004243  -0.000053   0.000011
     8  C    0.336589   0.000834   0.005758  -0.006569   0.005459  -0.003624
     9  C   -0.029907  -0.026989  -0.024496  -0.018333  -0.039160  -0.033159
    10  C    0.006383   0.337120   0.355991   0.365830  -0.005654   0.001739
    11  C   -0.010702   0.000047  -0.008860   0.004873   0.370348   0.352600
    12  N    0.008250  -0.000006   0.000121  -0.000109  -0.040363  -0.030431
    13  C    0.000944  -0.000025  -0.000052  -0.000004  -0.008730   0.003521
    14  O   -0.000047  -0.000000  -0.000000  -0.000000   0.000026  -0.000078
    15  O   -0.000043   0.000002  -0.000032   0.000002   0.005827   0.000097
    16  O   -0.000568   0.004460   0.000264   0.000484  -0.001492   0.003133
    17  H    0.003387   0.000000  -0.000000   0.000000  -0.000000  -0.000000
    18  H   -0.000070  -0.000000  -0.000000  -0.000000  -0.000000  -0.000000
    19  H    0.000109  -0.000006  -0.000001   0.000015  -0.000002  -0.000007
    20  H   -0.000006   0.000000   0.000000  -0.000000   0.000000   0.000000
    21  H   -0.000000   0.000000  -0.000000   0.000000  -0.000000   0.000000
    22  H    0.000003  -0.000003   0.000000  -0.000006   0.000000  -0.000000
    23  H    0.000102   0.002093   0.000034  -0.000208   0.000003  -0.000007
    24  H   -0.035905   0.000657  -0.000028   0.000192   0.000018   0.004331
    25  H    0.597198  -0.000115  -0.000147  -0.000087   0.000041   0.000649
    26  H   -0.000115   0.609218  -0.029285  -0.026764   0.000491   0.001134
    27  H   -0.000147  -0.029285   0.585868  -0.030028   0.006833   0.000155
    28  H   -0.000087  -0.026764  -0.030028   0.523910  -0.000146  -0.000189
    29  H    0.000041   0.000491   0.006833  -0.000146   0.555527  -0.026059
    30  H    0.000649   0.001134   0.000155  -0.000189  -0.026059   0.575329
    31  H    0.000773  -0.000000  -0.000002   0.000002   0.003804  -0.005919
    32  H    0.000002  -0.000000   0.000001  -0.000000   0.000058   0.000013
    33  H    0.000001  -0.000123   0.001771  -0.000263   0.003127   0.000175
              31         32         33
     1  C   -0.000002   0.000000   0.000271
     2  C   -0.000001  -0.000000  -0.000098
     3  C   -0.000000  -0.000000  -0.000001
     4  C    0.000000   0.000000   0.000000
     5  C   -0.000000  -0.000000  -0.000000
     6  C    0.000000   0.000000  -0.000005
     7  C    0.000001  -0.000000  -0.000013
     8  C    0.001217   0.000003   0.006774
     9  C    0.000221  -0.000000  -0.025743
    10  C   -0.000065   0.000001  -0.000138
    11  C   -0.025238  -0.000373  -0.006030
    12  N    0.315085   0.009097   0.000320
    13  C   -0.021677  -0.009379  -0.003260
    14  O    0.003700   0.014738   0.000150
    15  O    0.003837   0.227227   0.033554
    16  O   -0.000028   0.000479   0.222013
    17  H    0.000002  -0.000000  -0.000006
    18  H    0.000000  -0.000000  -0.000003
    19  H   -0.000003   0.000000  -0.000501
    20  H    0.000000   0.000000   0.000000
    21  H   -0.000000   0.000000   0.000000
    22  H    0.000000   0.000000  -0.000000
    23  H    0.000000   0.000000   0.000000
    24  H    0.000092  -0.000000  -0.000253
    25  H    0.000773   0.000002   0.000001
    26  H   -0.000000  -0.000000  -0.000123
    27  H   -0.000002   0.000001   0.001771
    28  H    0.000002  -0.000000  -0.000263
    29  H    0.003804   0.000058   0.003127
    30  H   -0.005919   0.000013   0.000175
    31  H    0.377427  -0.000284  -0.000095
    32  H   -0.000284   0.329207  -0.000142
    33  H   -0.000095  -0.000142   0.346520
 Mulliken charges:
               1
     1  C   -0.547335
     2  C    0.137693
     3  C   -0.185107
     4  C   -0.123864
     5  C   -0.131089
     6  C   -0.182549
     7  C    0.118851
     8  C   -0.370462
     9  C    0.344023
    10  C   -0.454443
    11  C   -0.189774
    12  N   -0.588410
    13  C    0.730625
    14  O   -0.512262
    15  O   -0.597489
    16  O   -0.667593
    17  H    0.153141
    18  H    0.148496
    19  H    0.189361
    20  H    0.120591
    21  H    0.122464
    22  H    0.121440
    23  H    0.117876
    24  H    0.133137
    25  H    0.145390
    26  H    0.127928
    27  H    0.135834
    28  H    0.178321
    29  H    0.170100
    30  H    0.156603
    31  H    0.347151
    32  H    0.429351
    33  H    0.422000
 Sum of Mulliken charges =  -0.00000
 Mulliken charges with hydrogens summed into heavy atoms:
               1
     1  C   -0.056337
     2  C    0.137693
     3  C   -0.064517
     4  C   -0.001400
     5  C   -0.009649
     6  C   -0.064673
     7  C    0.118851
     8  C   -0.091935
     9  C    0.344023
    10  C   -0.012360
    11  C    0.136928
    12  N   -0.241258
    13  C    0.730625
    14  O   -0.512262
    15  O   -0.168138
    16  O   -0.245593
 Electronic spatial extent (au):  <R**2>=           4397.6764
 Charge=              0.0000 electrons
 Dipole moment (field-independent basis, Debye):
    X=              0.5549    Y=             -2.3035    Z=             -0.4014  Tot=              2.4032
 Quadrupole moment (field-independent basis, Debye-Ang):
   XX=            -97.0130   YY=            -93.4496   ZZ=            -91.5397
   XY=             -7.2660   XZ=              4.5540   YZ=              4.6187
 Traceless Quadrupole moment (field-independent basis, Debye-Ang):
   XX=             -3.0122   YY=              0.5512   ZZ=              2.4611
   XY=             -7.2660   XZ=              4.5540   YZ=              4.6187
 Octapole moment (field-independent basis, Debye-Ang**2):
  XXX=              1.6422  YYY=             -1.7576  ZZZ=              2.3357  XYY=             -6.8283
  XXY=            -27.2854  XXZ=             48.9349  XZZ=             43.1740  YZZ=              3.7301
  YYZ=              6.6501  XYZ=              9.3683
 Hexadecapole moment (field-independent basis, Debye-Ang**3):
 XXXX=          -4245.3457 YYYY=          -1087.6832 ZZZZ=           -357.4477 XXXY=            -81.8806
 XXXZ=            136.3483 YYYX=            -17.8885 YYYZ=             18.3350 ZZZX=             16.5138
 ZZZY=              3.0421 XXYY=           -924.9966 XXZZ=           -733.2149 YYZZ=           -237.5906
 XXYZ=             81.4012 YYXZ=             19.2275 ZZXY=             21.1394
 N-N= 1.131355133572D+03 E-N=-4.004896315433D+03  KE= 7.410550716333D+02
 Calling FoFJK, ICntrl=      2127 FMM=F ISym2X=0 I1Cent= 0 IOpClX= 0 NMat=1 NMatS=1 NMatT=0.
 ***** Axes restored to original set *****
 -------------------------------------------------------------------
 Center     Atomic                   Forces (Hartrees/Bohr)
 Number     Number              X              Y              Z
 -------------------------------------------------------------------
      1        6           0.000673325    0.000321778   -0.004783960
      2        6          -0.002499493   -0.006553801    0.000057748
      3        6          -0.003942613    0.005143025    0.000471971
      4        6           0.002041684   -0.003196903   -0.000488174
      5        6          -0.002270842    0.003374307    0.000245178
      6        6           0.003597319   -0.003914367   -0.001570113
      7        6          -0.006995507    0.000912629   -0.002162333
      8        6           0.004263476   -0.005920231    0.004059599
      9        6          -0.004170625    0.002608297   -0.005581389
     10        6          -0.004168966    0.000581936   -0.000354830
     11        6           0.001943535   -0.003462050   -0.000672139
     12        7          -0.001723837    0.002099608    0.004572674
     13        6           0.011422677   -0.000133420    0.023070809
     14        8           0.003899073    0.000954247    0.002578314
     15        8          -0.001650807    0.000972770   -0.024148028
     16        8           0.004926417    0.001816387    0.006118608
     17        1           0.003820241    0.002151522   -0.000420789
     18        1          -0.001685979   -0.000265309    0.002084285
     19        1           0.000990949    0.003622037    0.001567634
     20        1           0.001862259    0.002226890   -0.000279595
     21        1           0.000026761   -0.000375563    0.000074943
     22        1          -0.000235643    0.000591521    0.000360142
     23        1           0.002486994    0.001147171   -0.000221094
     24        1          -0.002323879    0.002076911   -0.004258127
     25        1           0.000872553    0.002221512   -0.004816842
     26        1          -0.002220553    0.000211938    0.000465869
     27        1           0.002691793    0.002268138    0.001179571
     28        1           0.002582772   -0.000417355    0.005191928
     29        1          -0.002600050   -0.001826935    0.000779822
     30        1          -0.001461228   -0.001621371   -0.001613017
     31        1           0.000433730   -0.000809930   -0.003104744
     32        1          -0.007502965   -0.000425760   -0.000531425
     33        1          -0.003082571   -0.006379628    0.002127505
 -------------------------------------------------------------------
 Cartesian Forces:  Max     0.024148028 RMS     0.004567685

 GradGradGradGradGradGradGradGradGradGradGradGradGradGradGradGradGradGrad
 Berny optimization.
 FormGI is forming the generalized inverse of G from B-inverse, IUseBI=4.
 Internal  Forces:  Max     0.026017084 RMS     0.003594966
 Search for a local minimum.
 Step number   1 out of a maximum of  177
 All quantities printed in internal units (Hartrees-Bohrs-Radians)
 Mixed Optimization -- RFO/linear search
 Second derivative matrix not updated -- first step.
 ITU=  0
     Eigenvalues ---    0.00230   0.00230   0.00325   0.00501   0.00697
     Eigenvalues ---    0.00971   0.01238   0.01368   0.01470   0.01479
     Eigenvalues ---    0.01966   0.02066   0.02074   0.02086   0.02185
     Eigenvalues ---    0.02189   0.02208   0.02302   0.02346   0.02442
     Eigenvalues ---    0.03502   0.04004   0.04521   0.05185   0.05268
     Eigenvalues ---    0.05300   0.05572   0.05741   0.06418   0.07183
     Eigenvalues ---    0.07256   0.09791   0.10074   0.13017   0.13297
     Eigenvalues ---    0.15747   0.15987   0.16000   0.16000   0.16000
     Eigenvalues ---    0.16000   0.16000   0.16000   0.16000   0.16000
     Eigenvalues ---    0.16000   0.16000   0.16000   0.16000   0.16533
     Eigenvalues ---    0.21957   0.21999   0.22001   0.22004   0.22482
     Eigenvalues ---    0.24463   0.24981   0.24998   0.25000   0.25000
     Eigenvalues ---    0.26919   0.27263   0.29117   0.30367   0.31837
     Eigenvalues ---    0.33774   0.34044   0.34055   0.34073   0.34149
     Eigenvalues ---    0.34191   0.34258   0.34274   0.34289   0.34480
     Eigenvalues ---    0.35044   0.35094   0.35233   0.35233   0.37664
     Eigenvalues ---    0.40376   0.41164   0.41255   0.44242   0.45735
     Eigenvalues ---    0.45749   0.45940   0.47041   0.51141   0.51858
     Eigenvalues ---    0.54210   0.56474   0.96585
 RFO step:  Lambda=-1.25822582D-02 EMin= 2.30000000D-03
 Linear search not attempted -- first point.
 Iteration  1 RMS(Cart)=  0.14234573 RMS(Int)=  0.00449715
 Iteration  2 RMS(Cart)=  0.00821219 RMS(Int)=  0.00036886
 Iteration  3 RMS(Cart)=  0.00002745 RMS(Int)=  0.00036865
 Iteration  4 RMS(Cart)=  0.00000001 RMS(Int)=  0.00036865
 Variable       Old X    -DE/DX   Delta X   Delta X   Delta X     New X
                                 (Linear)    (Quad)   (Total)
    R1        2.84443   0.00405   0.00000   0.01222   0.01222   2.85665
    R2        2.06845   0.00212   0.00000   0.00596   0.00596   2.07442
    R3        2.07008  -0.00075   0.00000  -0.00210  -0.00210   2.06798
    R4        2.06528   0.00110   0.00000   0.00308   0.00308   2.06836
    R5        2.65717  -0.00462   0.00000  -0.01047  -0.01046   2.64671
    R6        2.66776  -0.00539   0.00000  -0.01297  -0.01296   2.65480
    R7        2.63414   0.00047   0.00000   0.00150   0.00150   2.63564
    R8        2.05604  -0.00088   0.00000  -0.00244  -0.00244   2.05361
    R9        2.62477   0.00367   0.00000   0.00843   0.00841   2.63318
   R10        2.05298   0.00033   0.00000   0.00090   0.00090   2.05388
   R11        2.63535  -0.00109   0.00000  -0.00187  -0.00188   2.63347
   R12        2.05299   0.00026   0.00000   0.00072   0.00072   2.05370
   R13        2.66091  -0.00613   0.00000  -0.01398  -0.01397   2.64694
   R14        2.05523  -0.00046   0.00000  -0.00128  -0.00128   2.05395
   R15        2.87237  -0.00423   0.00000  -0.01337  -0.01337   2.85900
   R16        2.93779  -0.01055   0.00000  -0.03700  -0.03700   2.90079
   R17        2.07713  -0.00071   0.00000  -0.00203  -0.00203   2.07510
   R18        2.07207  -0.00066   0.00000  -0.00187  -0.00187   2.07020
   R19        2.89761  -0.00087   0.00000  -0.00285  -0.00285   2.89476
   R20        2.94564  -0.00275   0.00000  -0.00977  -0.00977   2.93588
   R21        2.71046  -0.00224   0.00000  -0.00539  -0.00539   2.70507
   R22        2.06870   0.00170   0.00000   0.00478   0.00478   2.07347
   R23        2.07238   0.00008   0.00000   0.00022   0.00022   2.07260
   R24        2.06897  -0.00175   0.00000  -0.00492  -0.00492   2.06406
   R25        2.74857   0.00525   0.00000   0.01348   0.01348   2.76206
   R26        2.07255  -0.00117   0.00000  -0.00331  -0.00331   2.06924
   R27        2.07079  -0.00140   0.00000  -0.00394  -0.00394   2.06684
   R28        2.55841   0.00361   0.00000   0.00650   0.00650   2.56492
   R29        1.91131  -0.00283   0.00000  -0.00602  -0.00602   1.90529
   R30        2.30038   0.00432   0.00000   0.00441   0.00441   2.30480
   R31        2.53845   0.02602   0.00000   0.04506   0.04506   2.58351
   R32        1.85432  -0.00598   0.00000  -0.01142  -0.01142   1.84290
   R33        1.84736  -0.00681   0.00000  -0.01283  -0.01283   1.83453
    A1        1.92086   0.00442   0.00000   0.02239   0.02244   1.94330
    A2        1.94572  -0.00277   0.00000  -0.01251  -0.01246   1.93326
    A3        1.93918   0.00024   0.00000   0.00105   0.00108   1.94026
    A4        1.87917  -0.00076   0.00000  -0.00371  -0.00365   1.87552
    A5        1.91197  -0.00391   0.00000  -0.02936  -0.02932   1.88265
    A6        1.86511   0.00260   0.00000   0.02116   0.02118   1.88629
    A7        2.06622   0.00722   0.00000   0.02902   0.02888   2.09509
    A8        2.13479  -0.00580   0.00000  -0.02059  -0.02074   2.11405
    A9        2.08157  -0.00139   0.00000  -0.00744  -0.00754   2.07402
   A10        2.11327   0.00171   0.00000   0.00766   0.00766   2.12093
   A11        2.09746  -0.00371   0.00000  -0.02038  -0.02039   2.07707
   A12        2.07246   0.00200   0.00000   0.01273   0.01271   2.08517
   A13        2.09124  -0.00174   0.00000  -0.00441  -0.00443   2.08680
   A14        2.09437   0.00069   0.00000   0.00115   0.00115   2.09552
   A15        2.09756   0.00106   0.00000   0.00330   0.00330   2.10086
   A16        2.09168  -0.00254   0.00000  -0.00809  -0.00811   2.08356
   A17        2.09577   0.00190   0.00000   0.00767   0.00768   2.10346
   A18        2.09573   0.00064   0.00000   0.00042   0.00043   2.09616
   A19        2.11605   0.00080   0.00000   0.00328   0.00323   2.11928
   A20        2.06791   0.00238   0.00000   0.01448   0.01444   2.08235
   A21        2.09921  -0.00317   0.00000  -0.01767  -0.01770   2.08151
   A22        2.07229   0.00318   0.00000   0.00949   0.00947   2.08176
   A23        2.14031  -0.00768   0.00000  -0.02786  -0.02790   2.11241
   A24        2.07051   0.00450   0.00000   0.01855   0.01850   2.08901
   A25        2.04101  -0.00615   0.00000  -0.03271  -0.03296   2.00805
   A26        1.87843   0.00408   0.00000   0.03363   0.03331   1.91174
   A27        1.89103   0.00492   0.00000   0.02272   0.02115   1.91218
   A28        1.90540  -0.00022   0.00000  -0.00569  -0.00523   1.90018
   A29        1.90756  -0.00338   0.00000  -0.04197  -0.04213   1.86542
   A30        1.82856   0.00169   0.00000   0.03245   0.03171   1.86026
   A31        1.96779   0.00068   0.00000  -0.00728  -0.00691   1.96088
   A32        1.90923  -0.00019   0.00000  -0.01550  -0.01518   1.89405
   A33        1.91568  -0.00630   0.00000  -0.06088  -0.06032   1.85535
   A34        1.88500  -0.00132   0.00000   0.01013   0.00922   1.89422
   A35        1.86405   0.00365   0.00000   0.03956   0.03846   1.90251
   A36        1.92139   0.00377   0.00000   0.03772   0.03634   1.95773
   A37        1.94907   0.00310   0.00000   0.01412   0.01414   1.96321
   A38        1.93098  -0.00323   0.00000  -0.01424  -0.01425   1.91673
   A39        1.94771  -0.00520   0.00000  -0.03086  -0.03091   1.91681
   A40        1.88700   0.00024   0.00000   0.00264   0.00270   1.88969
   A41        1.90520   0.00004   0.00000  -0.00778  -0.00781   1.89739
   A42        1.83975   0.00530   0.00000   0.03815   0.03807   1.87783
   A43        1.99188   0.00580   0.00000   0.02868   0.02822   2.02010
   A44        1.91858  -0.00153   0.00000   0.00306   0.00182   1.92039
   A45        1.93173  -0.00493   0.00000  -0.04700  -0.04697   1.88476
   A46        1.86922   0.00076   0.00000   0.03318   0.03251   1.90173
   A47        1.87165  -0.00095   0.00000  -0.01056  -0.01017   1.86148
   A48        1.87612   0.00082   0.00000  -0.00713  -0.00733   1.86880
   A49        2.19999   0.00505   0.00000   0.02188   0.02183   2.22182
   A50        2.08580  -0.00122   0.00000  -0.00307  -0.00312   2.08268
   A51        1.99621  -0.00380   0.00000  -0.01798  -0.01804   1.97818
   A52        2.18609  -0.00012   0.00000  -0.00035  -0.00166   2.18442
   A53        1.98291  -0.00420   0.00000  -0.01590  -0.01723   1.96567
   A54        2.11419   0.00433   0.00000   0.01661   0.01525   2.12944
   A55        1.78549   0.00847   0.00000   0.04910   0.04910   1.83459
   A56        1.88071   0.00491   0.00000   0.02844   0.02844   1.90915
    D1       -1.92028  -0.00104   0.00000  -0.02157  -0.02162  -1.94190
    D2        1.18335  -0.00022   0.00000   0.00918   0.00924   1.19260
    D3        0.16365  -0.00086   0.00000  -0.01950  -0.01957   0.14408
    D4       -3.01590  -0.00004   0.00000   0.01124   0.01129  -3.00462
    D5        2.24204   0.00075   0.00000  -0.00037  -0.00042   2.24161
    D6       -0.93752   0.00158   0.00000   0.03037   0.03043  -0.90708
    D7        3.10397   0.00089   0.00000   0.03334   0.03363   3.13760
    D8       -0.03711   0.00070   0.00000   0.02725   0.02756  -0.00956
    D9       -0.00085   0.00020   0.00000   0.00389   0.00379   0.00295
   D10        3.14125   0.00001   0.00000  -0.00221  -0.00228   3.13898
   D11       -3.08352  -0.00161   0.00000  -0.05034  -0.04988  -3.13340
   D12        0.04436  -0.00116   0.00000  -0.03487  -0.03457   0.00979
   D13        0.01979  -0.00060   0.00000  -0.01857  -0.01862   0.00117
   D14       -3.13551  -0.00016   0.00000  -0.00310  -0.00331  -3.13882
   D15       -0.01310   0.00023   0.00000   0.00829   0.00832  -0.00478
   D16        3.13463   0.00005   0.00000   0.00215   0.00217   3.13681
   D17        3.12799   0.00042   0.00000   0.01429   0.01441  -3.14078
   D18       -0.00746   0.00024   0.00000   0.00815   0.00826   0.00080
   D19        0.00758  -0.00019   0.00000  -0.00520  -0.00517   0.00241
   D20       -3.13513  -0.00003   0.00000  -0.00122  -0.00116  -3.13629
   D21       -3.14016  -0.00001   0.00000   0.00094   0.00099  -3.13917
   D22        0.00032   0.00015   0.00000   0.00492   0.00500   0.00531
   D23        0.01194  -0.00031   0.00000  -0.01023  -0.01024   0.00170
   D24       -3.13622   0.00021   0.00000   0.00601   0.00618  -3.13003
   D25       -3.12854  -0.00047   0.00000  -0.01421  -0.01424   3.14041
   D26        0.00649   0.00005   0.00000   0.00203   0.00219   0.00868
   D27       -0.02559   0.00065   0.00000   0.02191   0.02209  -0.00350
   D28        3.12916   0.00032   0.00000   0.00743   0.00735   3.13651
   D29        3.12268   0.00010   0.00000   0.00526   0.00555   3.12823
   D30       -0.00576  -0.00024   0.00000  -0.00922  -0.00919  -0.01494
   D31        1.67680  -0.00289   0.00000  -0.10992  -0.10994   1.56686
   D32       -2.45561  -0.00425   0.00000  -0.11336  -0.11389  -2.56950
   D33       -0.48725   0.00211   0.00000  -0.04817  -0.04750  -0.53475
   D34       -1.47849  -0.00245   0.00000  -0.09453  -0.09463  -1.57312
   D35        0.67228  -0.00381   0.00000  -0.09797  -0.09858   0.57370
   D36        2.64064   0.00254   0.00000  -0.03277  -0.03219   2.60845
   D37        0.99180   0.00158   0.00000   0.04018   0.04002   1.03181
   D38        3.08948   0.00022   0.00000   0.03756   0.03689   3.12636
   D39       -1.08385   0.00081   0.00000   0.03626   0.03606  -1.04779
   D40       -1.14507   0.00082   0.00000   0.02381   0.02390  -1.12117
   D41        0.95261  -0.00054   0.00000   0.02119   0.02077   0.97338
   D42        3.06247   0.00005   0.00000   0.01988   0.01994   3.08241
   D43       -3.13576   0.00075   0.00000   0.01086   0.01148  -3.12428
   D44       -1.03808  -0.00061   0.00000   0.00824   0.00835  -1.02973
   D45        1.07178  -0.00003   0.00000   0.00694   0.00752   1.07930
   D46        0.97115   0.00113   0.00000   0.01985   0.01995   0.99111
   D47        3.07392   0.00130   0.00000   0.02296   0.02300   3.09692
   D48       -1.16670   0.00259   0.00000   0.04206   0.04215  -1.12454
   D49       -1.14040   0.00184   0.00000   0.03696   0.03705  -1.10335
   D50        0.96237   0.00201   0.00000   0.04006   0.04010   1.00247
   D51        3.00494   0.00330   0.00000   0.05917   0.05925   3.06419
   D52        3.07660  -0.00384   0.00000  -0.03358  -0.03371   3.04289
   D53       -1.10381  -0.00366   0.00000  -0.03048  -0.03066  -1.13448
   D54        0.93875  -0.00237   0.00000  -0.01138  -0.01151   0.92724
   D55        1.17161  -0.00381   0.00000  -0.07820  -0.07848   1.09313
   D56       -3.01136   0.00001   0.00000  -0.01357  -0.01381  -3.02518
   D57       -0.94150  -0.00299   0.00000  -0.04953  -0.04952  -0.99102
   D58       -2.96394  -0.00393   0.00000  -0.09029  -0.09050  -3.05445
   D59       -0.86373  -0.00011   0.00000  -0.02566  -0.02584  -0.88957
   D60        1.20613  -0.00311   0.00000  -0.06162  -0.06155   1.14458
   D61       -0.93478   0.00173   0.00000  -0.01678  -0.01662  -0.95140
   D62        1.16544   0.00555   0.00000   0.04784   0.04805   1.21348
   D63       -3.04789   0.00255   0.00000   0.01189   0.01234  -3.03555
   D64       -2.47710  -0.00024   0.00000  -0.02177  -0.02177  -2.49888
   D65        1.66765   0.00037   0.00000  -0.00165  -0.00075   1.66691
   D66       -0.37460  -0.00211   0.00000  -0.05583  -0.05673  -0.43133
   D67        1.43295   0.00407   0.00000   0.12998   0.13040   1.56335
   D68       -1.65328   0.00356   0.00000   0.11129   0.11166  -1.54162
   D69       -0.69465   0.00175   0.00000   0.08385   0.08343  -0.61121
   D70        2.50231   0.00124   0.00000   0.06516   0.06469   2.56700
   D71       -2.70411   0.00089   0.00000   0.08104   0.08112  -2.62299
   D72        0.49284   0.00038   0.00000   0.06235   0.06238   0.55522
   D73        3.13730   0.00007   0.00000   0.00106   0.00129   3.13859
   D74       -0.00868   0.00351   0.00000   0.09643   0.09628   0.08759
   D75       -0.05719   0.00061   0.00000   0.01926   0.01941  -0.03778
   D76        3.08002   0.00405   0.00000   0.11463   0.11440  -3.08877
   D77        3.12848  -0.00136   0.00000  -0.03797  -0.03826   3.09022
   D78       -0.01730   0.00191   0.00000   0.05297   0.05326   0.03597
         Item               Value     Threshold  Converged?
 Maximum Force            0.026017     0.000450     NO 
 RMS     Force            0.003595     0.000300     NO 
 Maximum Displacement     0.587799     0.001800     NO 
 RMS     Displacement     0.145768     0.001200     NO 
 Predicted change in Energy=-7.688484D-03
 GradGradGradGradGradGradGradGradGradGradGradGradGradGradGradGradGradGrad

                          Input orientation:                          
 ---------------------------------------------------------------------
 Center     Atomic      Atomic             Coordinates (Angstroms)
 Number     Number       Type             X           Y           Z
 ---------------------------------------------------------------------
      1          6           0        2.431790    0.123106   -0.205854
      2          6           0        0.962837    0.039034    0.140945
      3          6           0        0.343479   -1.210425    0.270819
      4          6           0       -1.008430   -1.324002    0.594376
      5          6           0       -1.765258   -0.172260    0.800099
      6          6           0       -1.158160    1.075972    0.676007
      7          6           0        0.197667    1.199146    0.346578
      8          6           0        0.815120    2.574100    0.215560
      9          6           0        0.753282    3.182953   -1.192202
     10          6           0       -0.684025    3.326360   -1.702212
     11          6           0        1.404925    4.592629   -1.149266
     12          7           0        2.821538    4.626515   -0.790960
     13          6           0        3.884592    4.546432   -1.631052
     14          8           0        5.054626    4.581853   -1.288559
     15          8           0        3.514929    4.532159   -2.947184
     16          8           0        1.464923    2.284807   -2.050097
     17          1           0        3.020663    0.503018    0.639082
     18          1           0        2.826746   -0.864357   -0.463689
     19          1           0        2.599191    0.789001   -1.058236
     20          1           0        0.932112   -2.109645    0.109955
     21          1           0       -1.466046   -2.305680    0.684806
     22          1           0       -2.818701   -0.242804    1.057697
     23          1           0       -1.746919    1.973393    0.847351
[...]
 
   287    O   14  S      Cor( 1S)     0.99987     -18.73399
   288    O   14  S      Val( 2S)     0.85415      -0.78786
   289    O   14  S      Ryd( 3S)     0.00127       1.67130
   290    O   14  S      Ryd( 4S)     0.00007       2.11432
   291    O   14  S      Ryd( 5S)     0.00000      49.78359
   292    O   14  px     Val( 2p)     0.79832      -0.15623
   293    O   14  px     Ryd( 3p)     0.00061       0.84744
   294    O   14  px     Ryd( 4p)     0.00004       1.20611
   295    O   14  px     Ryd( 5p)     0.00001       5.03531
   296    O   14  py     Val( 2p)     0.77666      -0.18706
   297    O   14  py     Ryd( 4p)     0.00047       1.14970
   298    O   14  py     Ryd( 3p)     0.00006       0.93771
   299    O   14  py     Ryd( 5p)     0.00004       5.38692
   300    O   14  pz     Val( 2p)     0.89676      -0.15961
   301    O   14  pz     Ryd( 3p)     0.00075       0.85505
   302    O   14  pz     Ryd( 4p)     0.00005       1.15374
   303    O   14  pz     Ryd( 5p)     0.00001       5.01623
   304    O   14  dxy    Ryd( 3d)     0.00071       3.42525
   305    O   14  dxz    Ryd( 3d)     0.00015       3.03431
   306    O   14  dyz    Ryd( 3d)     0.00066       3.35685
   307    O   14  dx2y2  Ryd( 3d)     0.00071       3.45684
   308    O   14  dz2    Ryd( 3d)     0.00030       3.24483
 
   309    O   15  S      Cor( 1S)     0.99988     -18.85918
   310    O   15  S      Val( 2S)     0.84659      -0.84852
   311    O   15  S      Ryd( 3S)     0.00113       1.07076
   312    O   15  S      Ryd( 4S)     0.00018       1.18363
   313    O   15  S      Ryd( 5S)     0.00000      49.63629
   314    O   15  px     Val( 2p)     0.88965      -0.23817
   315    O   15  px     Ryd( 3p)     0.00070       0.53731
   316    O   15  px     Ryd( 4p)     0.00038       1.19373
   317    O   15  px     Ryd( 5p)     0.00001       5.17053
   318    O   15  py     Val( 2p)     0.87465      -0.24551
   319    O   15  py     Ryd( 3p)     0.00102       0.55112
   320    O   15  py     Ryd( 4p)     0.00011       1.22498
   321    O   15  py     Ryd( 5p)     0.00003       5.26278
   322    O   15  pz     Val( 2p)     0.74777      -0.23137
   323    O   15  pz     Ryd( 3p)     0.00069       0.64453
   324    O   15  pz     Ryd( 4p)     0.00062       1.13097
   325    O   15  pz     Ryd( 5p)     0.00004       5.33400
   326    O   15  dxy    Ryd( 3d)     0.00054       3.29002
   327    O   15  dxz    Ryd( 3d)     0.00022       3.21750
   328    O   15  dyz    Ryd( 3d)     0.00058       3.46643
   329    O   15  dx2y2  Ryd( 3d)     0.00036       3.12329
   330    O   15  dz2    Ryd( 3d)     0.00036       3.35334
 
   331    O   16  S      Cor( 1S)     0.99988     -18.79562
   332    O   16  S      Val( 2S)     0.83464      -0.79576
   333    O   16  S      Ryd( 4S)     0.00026       1.87628
   334    O   16  S      Ryd( 3S)     0.00010       1.14831
   335    O   16  S      Ryd( 5S)     0.00000      49.69736
   336    O   16  px     Val( 2p)     0.85778      -0.18831
   337    O   16  px     Ryd( 3p)     0.00110       0.82627
   338    O   16  px     Ryd( 4p)     0.00034       1.13747
   339    O   16  px     Ryd( 5p)     0.00001       5.37927
   340    O   16  py     Val( 2p)     0.87281      -0.19827
   341    O   16  py     Ryd( 3p)     0.00147       0.74256
   342    O   16  py     Ryd( 4p)     0.00015       1.16855
   343    O   16  py     Ryd( 5p)     0.00001       5.30093
   344    O   16  pz     Val( 2p)     0.81217      -0.18509
   345    O   16  pz     Ryd( 3p)     0.00160       0.82366
   346    O   16  pz     Ryd( 4p)     0.00020       1.16537
   347    O   16  pz     Ryd( 5p)     0.00000       5.33354
   348    O   16  dxy    Ryd( 3d)     0.00039       3.21194
   349    O   16  dxz    Ryd( 3d)     0.00039       3.46593
   350    O   16  dyz    Ryd( 3d)     0.00040       3.43973
   351    O   16  dx2y2  Ryd( 3d)     0.00050       3.36409
   352    O   16  dz2    Ryd( 3d)     0.00015       3.19914
 
   353    H   17  S      Val( 1S)     0.39690       0.13086
   354    H   17  S      Ryd( 2S)     0.00024       0.50520
   355    H   17  S      Ryd( 3S)     0.00045       0.85431
   356    H   17  S      Ryd( 4S)     0.00007       1.97888
   357    H   17  px     Ryd( 2p)     0.00008       1.99382
   358    H   17  py     Ryd( 2p)     0.00011       1.99791
   359    H   17  pz     Ryd( 2p)     0.00013       2.70395
 
   360    H   18  S      Val( 1S)     0.40259       0.13035
   361    H   18  S      Ryd( 2S)     0.00012       0.85587
   362    H   18  S      Ryd( 3S)     0.00038       1.06696
   363    H   18  S      Ryd( 4S)     0.00006       1.39634
   364    H   18  px     Ryd( 2p)     0.00007       1.99364
   365    H   18  py     Ryd( 2p)     0.00013       2.58613
   366    H   18  pz     Ryd( 2p)     0.00007       1.99692
 
   367    H   19  S      Val( 1S)     0.37558       0.17196
   368    H   19  S      Ryd( 2S)     0.00063       0.43180
   369    H   19  S      Ryd( 3S)     0.00029       1.42547
   370    H   19  S      Ryd( 4S)     0.00011       1.55690
   371    H   19  px     Ryd( 2p)     0.00011       2.55320
   372    H   19  py     Ryd( 2p)     0.00010       1.98688
   373    H   19  pz     Ryd( 2p)     0.00008       2.20780
 
   374    H   20  S      Val( 1S)     0.40336       0.13697
   375    H   20  S      Ryd( 2S)     0.00014       0.65654
   376    H   20  S      Ryd( 4S)     0.00036       1.43656
   377    H   20  S      Ryd( 3S)     0.00004       1.24679
   378    H   20  px     Ryd( 2p)     0.00007       2.11008
   379    H   20  py     Ryd( 2p)     0.00021       2.69922
   380    H   20  pz     Ryd( 2p)     0.00013       1.82996
 
   381    H   21  S      Val( 1S)     0.40265       0.13531
   382    H   21  S      Ryd( 2S)     0.00003       0.46526
   383    H   21  S      Ryd( 4S)     0.00029       1.50237
   384    H   21  S      Ryd( 3S)     0.00003       1.31921
   385    H   21  px     Ryd( 2p)     0.00021       2.64654
   386    H   21  py     Ryd( 2p)     0.00007       2.09183
   387    H   21  pz     Ryd( 2p)     0.00013       1.81920
 
   388    H   22  S      Val( 1S)     0.40072       0.13877
   389    H   22  S      Ryd( 2S)     0.00008       0.48267
   390    H   22  S      Ryd( 3S)     0.00029       1.45967
   391    H   22  S      Ryd( 4S)     0.00002       1.54844
   392    H   22  px     Ryd( 2p)     0.00015       2.45117
   393    H   22  py     Ryd( 2p)     0.00015       2.40194
   394    H   22  pz     Ryd( 2p)     0.00011       1.75652
 
   395    H   23  S      Val( 1S)     0.39650       0.14865
   396    H   23  S      Ryd( 2S)     0.00045       0.48055
   397    H   23  S      Ryd( 3S)     0.00053       1.03020
   398    H   23  S      Ryd( 4S)     0.00013       2.54139
   399    H   23  px     Ryd( 2p)     0.00007       2.12608
   400    H   23  py     Ryd( 2p)     0.00021       2.74920
   401    H   23  pz     Ryd( 2p)     0.00010       1.87229
 
   402    H   24  S      Val( 1S)     0.38685       0.13736
   403    H   24  S      Ryd( 2S)     0.00204       0.48492
   404    H   24  S      Ryd( 4S)     0.00041       1.75156
   405    H   24  S      Ryd( 3S)     0.00002       1.08615
   406    H   24  px     Ryd( 2p)     0.00007       2.06171
   407    H   24  py     Ryd( 2p)     0.00008       2.38252
   408    H   24  pz     Ryd( 2p)     0.00013       2.48625
 
   409    H   25  S      Val( 1S)     0.39265       0.13873
   410    H   25  S      Ryd( 2S)     0.00108       0.74878
   411    H   25  S      Ryd( 4S)     0.00053       1.89131
   412    H   25  S      Ryd( 3S)     0.00002       0.85786
   413    H   25  px     Ryd( 2p)     0.00009       2.20042
   414    H   25  py     Ryd( 2p)     0.00010       2.55419
   415    H   25  pz     Ryd( 2p)     0.00010       2.18886
 
   416    H   26  S      Val( 1S)     0.39515       0.13264
   417    H   26  S      Ryd( 2S)     0.00101       0.42061
   418    H   26  S      Ryd( 4S)     0.00023       1.58702
   419    H   26  S      Ryd( 3S)     0.00002       1.20521
   420    H   26  px     Ryd( 2p)     0.00006       1.93839
   421    H   26  py     Ryd( 2p)     0.00011       2.39550
   422    H   26  pz     Ryd( 2p)     0.00010       2.29182
 
   423    H   27  S      Val( 1S)     0.39878       0.13250
   424    H   27  S      Ryd( 2S)     0.00041       0.53526
   425    H   27  S      Ryd( 4S)     0.00035       1.39833
   426    H   27  S      Ryd( 3S)     0.00004       1.31708
   427    H   27  px     Ryd( 2p)     0.00009       2.23991
   428    H   27  py     Ryd( 2p)     0.00008       2.03782
   429    H   27  pz     Ryd( 2p)     0.00011       2.38177
 
   430    H   28  S      Val( 1S)     0.39072       0.14983
   431    H   28  S      Ryd( 2S)     0.00068       0.50377
   432    H   28  S      Ryd( 4S)     0.00025       1.95126
   433    H   28  S      Ryd( 3S)     0.00002       0.91540
   434    H   28  px     Ryd( 2p)     0.00011       2.65490
   435    H   28  py     Ryd( 2p)     0.00008       1.94185
   436    H   28  pz     Ryd( 2p)     0.00007       2.15333
 
   437    H   29  S      Val( 1S)     0.39163       0.12827
   438    H   29  S      Ryd( 2S)     0.00156       0.45974
   439    H   29  S      Ryd( 4S)     0.00037       1.79723
   440    H   29  S      Ryd( 3S)     0.00002       1.10324
   441    H   29  px     Ryd( 2p)     0.00011       2.28166
   442    H   29  py     Ryd( 2p)     0.00010       2.25621
   443    H   29  pz     Ryd( 2p)     0.00009       2.34323
 
   444    H   30  S      Val( 1S)     0.38709       0.12287
   445    H   30  S      Ryd( 2S)     0.00289       0.45309
   446    H   30  S      Ryd( 4S)     0.00037       1.60829
   447    H   30  S      Ryd( 3S)     0.00003       1.16673
   448    H   30  px     Ryd( 2p)     0.00006       1.98914
   449    H   30  py     Ryd( 2p)     0.00011       2.32264
   450    H   30  pz     Ryd( 2p)     0.00012       2.58007
 
   451    H   31  S      Val( 1S)     0.29685       0.16646
   452    H   31  S      Ryd( 2S)     0.00146       0.46282
   453    H   31  S      Ryd( 3S)     0.00051       0.88610
   454    H   31  S      Ryd( 4S)     0.00020       2.45537
   455    H   31  px     Ryd( 2p)     0.00021       1.94323
   456    H   31  py     Ryd( 2p)     0.00019       2.12046
   457    H   31  pz     Ryd( 2p)     0.00022       2.62513
 
   458    H   32  S      Val( 1S)     0.24073       0.15621
   459    H   32  S      Ryd( 2S)     0.00758       0.32152
   460    H   32  S      Ryd( 4S)     0.00035       2.22462
   461    H   32  S      Ryd( 3S)     0.00006       0.81527
   462    H   32  px     Ryd( 2p)     0.00060       1.95681
   463    H   32  py     Ryd( 2p)     0.00052       2.20992
   464    H   32  pz     Ryd( 2p)     0.00049       2.10034
 
   465    H   33  S      Val( 1S)     0.25625       0.21530
   466    H   33  S      Ryd( 2S)     0.00145       0.58228
   467    H   33  S      Ryd( 4S)     0.00054       2.14609
   468    H   33  S      Ryd( 3S)     0.00004       0.91832
   469    H   33  px     Ryd( 2p)     0.00058       2.48156
   470    H   33  py     Ryd( 2p)     0.00056       1.88961
   471    H   33  pz     Ryd( 2p)     0.00055       2.19560

 WARNING:  Population inversion found on atom  C    1
           Population inversion found on atom  C    2
           Population inversion found on atom  C    3
           Population inversion found on atom  C    4
           Population inversion found on atom  C    5
           Population inversion found on atom  C    6
           Population inversion found on atom  C    7
           Population inversion found on atom  C    8
           Population inversion found on atom  C    9
           Population inversion found on atom  C   11
           Population inversion found on atom  N   12
           Population inversion found on atom  C   13
           Population inversion found on atom  O   14
           Population inversion found on atom  O   16
           Population inversion found on atom  H   17
           Population inversion found on atom  H   18
           Population inversion found on atom  H   20
           Population inversion found on atom  H   21
           Population inversion found on atom  H   22
           Population inversion found on atom  H   23
           Population inversion found on atom  H   24
           Population inversion found on atom  H   25
           Population inversion found on atom  H   26
           Population inversion found on atom  H   27
           Population inversion found on atom  H   28
           Population inversion found on atom  H   29
           Population inversion found on atom  H   30
           Population inversion found on atom  H   32
           Population inversion found on atom  H   33


 Summary of Natural Population Analysis:                  
                                                          
                                       Natural Population 
                Natural  -----------------------------------------------
    Atom  No    Charge         Core      Valence    Rydberg      Total
 -----------------------------------------------------------------------
      C    1   -0.29942      0.99963     2.29512    0.00467     3.29942
      C    2   -0.00432      0.99947     1.99674    0.00811     3.00432
      C    3   -0.10249      0.99952     2.09408    0.00889     3.10249
      C    4   -0.10524      0.99956     2.09573    0.00994     3.10524
      C    5   -0.10778      0.99956     2.09918    0.00904     3.10778
      C    6   -0.09525      0.99951     2.08603    0.00972     3.09525
      C    7   -0.00868      0.99946     1.99784    0.01138     3.00868
      C    8   -0.20929      0.99955     2.19703    0.01271     3.20929
      C    9    0.12993      0.99953     1.85455    0.01599     2.87007
      C   10   -0.29866      0.99961     2.29193    0.00712     3.29866
      C   11   -0.10140      0.99955     2.08901    0.01285     3.10140
      N   12   -0.32438      0.99966     2.81368    0.01103     3.82438
      C   13    0.46122      0.99971     1.51451    0.02456     2.53878
      O   14   -0.33169      0.99987     3.32589    0.00592     4.33169
      O   15   -0.36553      0.99988     3.35866    0.00698     4.36553
      O   16   -0.38437      0.99988     3.37741    0.00708     4.38437
      H   17    0.10203      0.00000     0.39690    0.00107     0.39797
      H   18    0.09659      0.00000     0.40259    0.00082     0.40341
      H   19    0.12311      0.00000     0.37558    0.00131     0.37689
      H   20    0.09569      0.00000     0.40336    0.00095     0.40431
      H   21    0.09659      0.00000     0.40265    0.00076     0.40341
      H   22    0.09848      0.00000     0.40072    0.00080     0.40152
      H   23    0.10200      0.00000     0.39650    0.00149     0.39800
      H   24    0.11041      0.00000     0.38685    0.00275     0.38959
      H   25    0.10542      0.00000     0.39265    0.00193     0.39458
      H   26    0.10333      0.00000     0.39515    0.00152     0.39667
      H   27    0.10014      0.00000     0.39878    0.00108     0.39986
      H   28    0.10807      0.00000     0.39072    0.00121     0.39193
      H   29    0.10611      0.00000     0.39163    0.00226     0.39389
      H   30    0.10933      0.00000     0.38709    0.00358     0.39067
      H   31    0.20035      0.00000     0.29685    0.00280     0.29965
      H   32    0.24968      0.00000     0.24073    0.00960     0.25032
      H   33    0.24003      0.00000     0.25625    0.00372     0.25997
 =======================================================================
   * Total *   -0.00000     15.99395    43.80243    0.20362    60.00000

                                 Natural Population      
 --------------------------------------------------------
   Core                      15.99395 ( 99.9622% of  16)
   Valence                   43.80243 ( 99.5510% of  44)
   Natural Minimal Basis     59.79638 ( 99.6606% of  60)
   Natural Rydberg Basis      0.20362 (  0.3394% of  60)
 --------------------------------------------------------

    Atom  No          Natural Electron Configuration
 ----------------------------------------------------------------------------
      C    1      [core]2S( 0.54)2p( 1.76)
      C    2      [core]2S( 0.44)2p( 1.56)
      C    3      [core]2S( 0.47)2p( 1.63)4p( 0.01)
      C    4      [core]2S( 0.47)2p( 1.62)4p( 0.01)
      C    5      [core]2S( 0.47)2p( 1.63)4p( 0.01)
      C    6      [core]2S( 0.47)2p( 1.62)
      C    7      [core]2S( 0.44)2p( 1.56)3p( 0.01)
      C    8      [core]2S( 0.50)2p( 1.70)
      C    9      [core]2S( 0.45)2p( 1.40)3p( 0.01)
      C   10      [core]2S( 0.54)2p( 1.75)
      C   11      [core]2S( 0.50)2p( 1.59)3p( 0.01)
      N   12      [core]2S( 0.63)2p( 2.18)
      C   13      [core]2S( 0.35)2p( 1.17)3d( 0.01)4p( 0.01)
      O   14      [core]2S( 0.85)2p( 2.47)
      O   15      [core]2S( 0.85)2p( 2.51)
      O   16      [core]2S( 0.83)2p( 2.54)
      H   17            1S( 0.40)
      H   18            1S( 0.40)
      H   19            1S( 0.38)
      H   20            1S( 0.40)
      H   21            1S( 0.40)
      H   22            1S( 0.40)
      H   23            1S( 0.40)
      H   24            1S( 0.39)
      H   25            1S( 0.39)
      H   26            1S( 0.40)
      H   27            1S( 0.40)
      H   28            1S( 0.39)
      H   29            1S( 0.39)
      H   30            1S( 0.39)
      H   31            1S( 0.30)
      H   32            1S( 0.24)2S( 0.01)
      H   33            1S( 0.26)


 NBO analysis skipped by request.
 1\1\GINC-NODE377\SP\UB3LYP\6-311++G(d,p)\C12H17N1O3(1-,2)\VSC10255\10-
 Dec-2020\0\\# B3LYP/6-311++G(d,p) empiricaldispersion=gd3bj scf=xqc po
 p=npa geom=check\\CID_89813911_JID_6686_Energie_anion\\-1,2\C,0,2.5270
 397646,0.2101546466,-0.0264545116\C,0,1.0358972689,0.0844989255,0.1769
 345818\C,0,0.4505845801,-1.1853985588,0.2368176119\C,0,-0.9168789129,-
 1.3552969611,0.4496976834\C,0,-1.7291940284,-0.2369933757,0.6216586118
 \C,0,-1.1592965946,1.0339888736,0.5677223106\C,0,0.2087174621,1.216389
 1836,0.3332739132\C,0,0.7628552146,2.6221966353,0.2661089252\C,0,0.733
 0260233,3.2813157149,-1.1332500596\C,0,-0.6952711506,3.4676452538,-1.6
 541843156\C,0,1.4241011626,4.6670409044,-1.0678715998\N,0,2.8533595086
 ,4.618510094,-0.8046508794\C,0,3.8020776611,4.2996313044,-1.7270332046
 \O,0,4.9640329038,4.0381319371,-1.4878042376\O,0,3.3102401064,4.355509
 4607,-3.0111155363\O,0,1.4572284029,2.4169054623,-2.0092010624\H,0,3.0
 146166132,0.6608940973,0.848681762\H,0,2.9805058747,-0.7736204675,-0.1
 80545861\H,0,2.7546198845,0.8417478603,-0.8884028701\H,0,1.0862798143,
 -2.0592172534,0.1158770578\H,0,-1.3404310202,-2.3551097912,0.489904176
 3\H,0,-2.7945419027,-0.3494593338,0.8024946841\H,0,-1.7881553748,1.908
 9632815,0.7152702934\H,0,0.1908869183,3.2685765178,0.9434622331\H,0,1.
 8003922385,2.628955967,0.6149882437\H,0,-1.2863550193,4.1162822888,-0.
 9963278714\H,0,-0.6757583676,3.9228554962,-2.6515205445\H,0,-1.1943251
 343,2.4992487145,-1.7298243679\H,0,1.278399028,5.1911551495,-2.0167091
 572\H,0,0.9550620764,5.276877102,-0.2888885039\H,0,3.1656528717,4.4669
 964209,0.1437168829\H,0,4.0804579495,4.1578539809,-3.5717251356\H,0,1.
 7356541771,2.9333404687,-2.7834592527\\Version=ES64L-G16RevA.03\State=
 2-A\HF=-748.2488494\S2=0.75008\S2-1=0.\S2A=0.75\RMSD=3.292e-11\Dipole=
 -0.632188,-2.3105469,0.1161051\Quadrupole=-5.1080949,0.1953137,4.91278
 12,-6.923676,11.0112031,2.5183727\PG=C01 [X(C12H17N1O3)]\\@


 BETTER TO HUNT IN FIELDS, FOR HEALTH UNBOUGHT
 THAN FEE THE DOCTOR FOR A NAUSEOUS DRAUGHT.
 THE WISE, FOR CURE, ON EXERCISE DEPEND;
 GOD NEVER MADE HIS WORK FOR MAN TO MEND.
     -- JOHN DRYDEN (1631-1700)
 Job cpu time:       0 days  0 hours 56 minutes 51.4 seconds.
 Elapsed time:       0 days  0 hours 14 minutes 23.9 seconds.
 File lengths (MBytes):  RWF=    268 Int=      0 D2E=      0 Chk=     24 Scr=      8
 Normal termination of Gaussian 16 at Thu Dec 10 23:46:18 2020.
