 Entering Gaussian System, Link 0=g16
 Initial command:
 /apps/brussel/CO7/skylake/software/Gaussian/G16.A.03-intel-2017b/g16/l1.exe "/scratch/brussel/102/vsc10255/3547575[4862].master01.hydra.brussel.vsc/Gau-24436.inp" -scrdir="/scratch/brussel/102/vsc10255/3547575[4862].master01.hydra.brussel.vsc/"
 Entering Link 1 = /apps/brussel/CO7/skylake/software/Gaussian/G16.A.03-intel-2017b/g16/l1.exe.bin PID=     24437.
  
 Copyright (c) 1988,1990,1992,1993,1995,1998,2003,2009,2016,
            Gaussian, Inc.  All Rights Reserved.
  
 This is part of the Gaussian(R) 16 program.  It is based on
 the Gaussian(R) 09 system (copyright 2009, Gaussian, Inc.),
 the Gaussian(R) 03 system (copyright 2003, Gaussian, Inc.),
 the Gaussian(R) 98 system (copyright 1998, Gaussian, Inc.),
 the Gaussian(R) 94 system (copyright 1995, Gaussian, Inc.),
 the Gaussian 92(TM) system (copyright 1992, Gaussian, Inc.),
 the Gaussian 90(TM) system (copyright 1990, Gaussian, Inc.),
 the Gaussian 88(TM) system (copyright 1988, Gaussian, Inc.),
 the Gaussian 86(TM) system (copyright 1986, Carnegie Mellon
 University), and the Gaussian 82(TM) system (copyright 1983,
 Carnegie Mellon University). Gaussian is a federally registered
 trademark of Gaussian, Inc.
  
 This software contains proprietary and confidential information,
 including trade secrets, belonging to Gaussian, Inc.
  
 This software is provided under written license and may be
 used, copied, transmitted, or stored only in accord with that
 written license.
  
 The following legend is applicable only to US Government
 contracts under FAR:
  
                    RESTRICTED RIGHTS LEGEND
  
 Use, reproduction and disclosure by the US Government is
 subject to restrictions as set forth in subparagraphs (a)
 and (c) of the Commercial Computer Software - Restricted
 Rights clause in FAR 52.227-19.
  
 Gaussian, Inc.
 340 Quinnipiac St., Bldg. 40, Wallingford CT 06492
  
  
 ---------------------------------------------------------------
 Warning -- This program may not be used in any manner that
 competes with the business of Gaussian, Inc. or will provide
 assistance to any competitor of Gaussian, Inc.  The licensee
 of this program is prohibited from giving any competitor of
 Gaussian, Inc. access to this program.  By using this program,
 the user acknowledges that Gaussian, Inc. is engaged in the
 business of creating and licensing software in the field of
 computational chemistry and represents and warrants to the
 licensee that it is not a competitor of Gaussian, Inc. and that
 it will not use this program in any manner prohibited above.
 ---------------------------------------------------------------
  

 Cite this work as:
 Gaussian 16, Revision A.03,
 M. J. Frisch, G. W. Trucks, H. B. Schlegel, G. E. Scuseria, 
 M. A. Robb, J. R. Cheeseman, G. Scalmani, V. Barone, 
 G. A. Petersson, H. Nakatsuji, X. Li, M. Caricato, A. V. Marenich, 
 J. Bloino, B. G. Janesko, R. Gomperts, B. Mennucci, H. P. Hratchian, 
 J. V. Ortiz, A. F. Izmaylov, J. L. Sonnenberg, D. Williams-Young, 
 F. Ding, F. Lipparini, F. Egidi, J. Goings, B. Peng, A. Petrone, 
 T. Henderson, D. Ranasinghe, V. G. Zakrzewski, J. Gao, N. Rega, 
 G. Zheng, W. Liang, M. Hada, M. Ehara, K. Toyota, R. Fukuda, 
 J. Hasegawa, M. Ishida, T. Nakajima, Y. Honda, O. Kitao, H. Nakai, 
 T. Vreven, K. Throssell, J. A. Montgomery, Jr., J. E. Peralta, 
 F. Ogliaro, M. J. Bearpark, J. J. Heyd, E. N. Brothers, K. N. Kudin, 
 V. N. Staroverov, T. A. Keith, R. Kobayashi, J. Normand, 
 K. Raghavachari, A. P. Rendell, J. C. Burant, S. S. Iyengar, 
 J. Tomasi, M. Cossi, J. M. Millam, M. Klene, C. Adamo, R. Cammi, 
 J. W. Ochterski, R. L. Martin, K. Morokuma, O. Farkas, 
 J. B. Foresman, and D. J. Fox, Gaussian, Inc., Wallingford CT, 2016.
 
 ******************************************
 Gaussian 16:  ES64L-G16RevA.03 25-Dec-2016
                10-Dec-2020 
 ******************************************
 %chk=JID_4862.chk
 %mem=8GB
 %nprocshared=4
 Will use up to    4 processors via shared memory.
 -----------------------------------------------------------
 # opt freq B3LYP/6-31G(d) empiricaldispersion=gd3bj scf=xqc
 -----------------------------------------------------------
 1/18=20,19=15,26=3,38=1/1,3;
 2/9=110,12=2,17=6,18=5,40=1/2;
 3/5=1,6=6,7=1,11=2,25=1,30=1,71=1,74=-5,124=41/1,2,3;
 4//1;
 5/5=2,8=3,13=1,38=5/2,8;
 6/7=2,8=2,9=2,10=2,28=1/1;
 7//1,2,3,16;
 1/18=20,19=15,26=3/3(2);
 2/9=110/2;
 99//99;
 2/9=110/2;
 3/5=1,6=6,7=1,11=2,25=1,30=1,71=1,74=-5,124=41/1,2,3;
 4/5=5,16=3,69=1/1;
 5/5=2,8=3,13=1,38=5/2,8;
 7//1,2,3,16;
 1/18=20,19=15,26=3/3(-5);
 2/9=110/2;
 6/7=2,8=2,9=2,10=2,19=2,28=1/1;
 99/9=1/99;
 ------------------------------
 CID_82396229_JID_4862_neutraal
 ------------------------------
 Symbolic Z-matrix:
 Charge =  0 Multiplicity = 1
 C                     1.09802   0.01694  -0.01029 
 C                     0.57029  -0.05076   1.39541 
 C                     0.42893  -1.30703   2.00679 
 C                    -0.0599   -1.40455   3.30607 
 N                    -0.3963   -0.34349   4.06485 
 C                    -0.23664   0.85146   3.46431 
 C                     0.22706   1.0817    2.17373 
 C                     0.26063   2.49162   1.90681 
 C                    -0.16398   3.26594   2.97219 
 S                    -0.61142   2.2875    4.29745 
 C                    -0.23606   4.72175   3.0056 
 O                     0.08558   5.40869   2.03396 
 C                    -0.7151    5.40708   4.26459 
 C                    -0.1815   -2.75292   3.95624 
 H                     0.99003   1.0187   -0.43545 
 H                     0.54864  -0.67645  -0.65562 
 H                     2.15959  -0.24938  -0.02294 
 H                     0.69739  -2.20826   1.46084 
 H                     0.58797   2.92858   0.9698 
 H                    -1.74208   5.10985   4.49268 
 H                    -0.04991   5.1752    5.10061 
 H                    -0.70237   6.49115   4.11308 
 H                     0.77253  -3.03105   4.41411 
 H                    -0.95185  -2.73511   4.73406 
 H                    -0.46393  -3.51789   3.2259 
 

 GradGradGradGradGradGradGradGradGradGradGradGradGradGradGradGradGradGrad
 Berny optimization.
 Initialization pass.
                           ----------------------------
                           !    Initial Parameters    !
                           ! (Angstroms and Degrees)  !
 --------------------------                            --------------------------
 ! Name  Definition              Value          Derivative Info.                !
 --------------------------------------------------------------------------------
 ! R1    R(1,2)                  1.503          estimate D2E/DX2                !
 ! R2    R(1,15)                 1.0936         estimate D2E/DX2                !
 ! R3    R(1,16)                 1.095          estimate D2E/DX2                !
 ! R4    R(1,17)                 1.0945         estimate D2E/DX2                !
 ! R5    R(2,3)                  1.4043         estimate D2E/DX2                !
 ! R6    R(2,7)                  1.4164         estimate D2E/DX2                !
 ! R7    R(3,4)                  1.3916         estimate D2E/DX2                !
 ! R8    R(3,18)                 1.0874         estimate D2E/DX2                !
 ! R9    R(4,5)                  1.3471         estimate D2E/DX2                !
 ! R10   R(4,14)                 1.5019         estimate D2E/DX2                !
 ! R11   R(5,6)                  1.3469         estimate D2E/DX2                !
 ! R12   R(6,7)                  1.3905         estimate D2E/DX2                !
 ! R13   R(6,10)                 1.702          estimate D2E/DX2                !
 ! R14   R(7,8)                  1.4354         estimate D2E/DX2                !
 ! R15   R(8,9)                  1.3838         estimate D2E/DX2                !
 ! R16   R(8,19)                 1.0845         estimate D2E/DX2                !
 ! R17   R(9,10)                 1.707          estimate D2E/DX2                !
 ! R18   R(9,11)                 1.458          estimate D2E/DX2                !
 ! R19   R(11,12)                1.2326         estimate D2E/DX2                !
 ! R20   R(11,13)                1.5114         estimate D2E/DX2                !
 ! R21   R(13,20)                1.0932         estimate D2E/DX2                !
 ! R22   R(13,21)                1.0932         estimate D2E/DX2                !
 ! R23   R(13,22)                1.0947         estimate D2E/DX2                !
 ! R24   R(14,23)                1.0942         estimate D2E/DX2                !
 ! R25   R(14,24)                1.0949         estimate D2E/DX2                !
 ! R26   R(14,25)                1.0947         estimate D2E/DX2                !
 ! A1    A(2,1,15)             111.7273         estimate D2E/DX2                !
 ! A2    A(2,1,16)             110.2731         estimate D2E/DX2                !
 ! A3    A(2,1,17)             109.9004         estimate D2E/DX2                !
 ! A4    A(15,1,16)            107.5411         estimate D2E/DX2                !
 ! A5    A(15,1,17)            108.3104         estimate D2E/DX2                !
 ! A6    A(16,1,17)            109.0087         estimate D2E/DX2                !
 ! A7    A(1,2,3)              118.8698         estimate D2E/DX2                !
 ! A8    A(1,2,7)              124.2645         estimate D2E/DX2                !
 ! A9    A(3,2,7)              116.8496         estimate D2E/DX2                !
 ! A10   A(2,3,4)              120.3005         estimate D2E/DX2                !
 ! A11   A(2,3,18)             119.8693         estimate D2E/DX2                !
 ! A12   A(4,3,18)             119.8293         estimate D2E/DX2                !
 ! A13   A(3,4,5)              123.9456         estimate D2E/DX2                !
 ! A14   A(3,4,14)             119.7053         estimate D2E/DX2                !
 ! A15   A(5,4,14)             116.301          estimate D2E/DX2                !
 ! A16   A(4,5,6)              114.7121         estimate D2E/DX2                !
 ! A17   A(5,6,7)              126.8881         estimate D2E/DX2                !
 ! A18   A(5,6,10)             120.2788         estimate D2E/DX2                !
 ! A19   A(7,6,10)             112.8328         estimate D2E/DX2                !
 ! A20   A(2,7,6)              117.2865         estimate D2E/DX2                !
 ! A21   A(2,7,8)              132.6512         estimate D2E/DX2                !
 ! A22   A(6,7,8)              110.0617         estimate D2E/DX2                !
 ! A23   A(7,8,9)              113.5343         estimate D2E/DX2                !
 ! A24   A(7,8,19)             124.2995         estimate D2E/DX2                !
 ! A25   A(9,8,19)             122.1655         estimate D2E/DX2                !
 ! A26   A(8,9,10)             110.9415         estimate D2E/DX2                !
 ! A27   A(8,9,11)             126.2665         estimate D2E/DX2                !
 ! A28   A(10,9,11)            122.792          estimate D2E/DX2                !
 ! A29   A(6,10,9)              92.629          estimate D2E/DX2                !
 ! A30   A(9,11,12)            121.7017         estimate D2E/DX2                !
 ! A31   A(9,11,13)            119.1788         estimate D2E/DX2                !
 ! A32   A(12,11,13)           119.1194         estimate D2E/DX2                !
 ! A33   A(11,13,20)           110.3821         estimate D2E/DX2                !
 ! A34   A(11,13,21)           110.3643         estimate D2E/DX2                !
 ! A35   A(11,13,22)           109.2734         estimate D2E/DX2                !
 ! A36   A(20,13,21)           110.7555         estimate D2E/DX2                !
 ! A37   A(20,13,22)           108.0026         estimate D2E/DX2                !
 ! A38   A(21,13,22)           107.9877         estimate D2E/DX2                !
 ! A39   A(4,14,23)            109.8024         estimate D2E/DX2                !
 ! A40   A(4,14,24)            110.4817         estimate D2E/DX2                !
 ! A41   A(4,14,25)            111.0663         estimate D2E/DX2                !
 ! A42   A(23,14,24)           108.6831         estimate D2E/DX2                !
 ! A43   A(23,14,25)           109.0574         estimate D2E/DX2                !
 ! A44   A(24,14,25)           107.6864         estimate D2E/DX2                !
 ! D1    D(15,1,2,3)           169.5716         estimate D2E/DX2                !
 ! D2    D(15,1,2,7)           -11.9378         estimate D2E/DX2                !
 ! D3    D(16,1,2,3)            50.0296         estimate D2E/DX2                !
 ! D4    D(16,1,2,7)          -131.4798         estimate D2E/DX2                !
 ! D5    D(17,1,2,3)           -70.1683         estimate D2E/DX2                !
 ! D6    D(17,1,2,7)           108.3223         estimate D2E/DX2                !
 ! D7    D(1,2,3,4)           -179.8414         estimate D2E/DX2                !
 ! D8    D(1,2,3,18)            -0.179          estimate D2E/DX2                !
 ! D9    D(7,2,3,4)              1.5567         estimate D2E/DX2                !
 ! D10   D(7,2,3,18)          -178.7809         estimate D2E/DX2                !
 ! D11   D(1,2,7,6)           -179.4158         estimate D2E/DX2                !
 ! D12   D(1,2,7,8)              0.2891         estimate D2E/DX2                !
 ! D13   D(3,2,7,6)             -0.8973         estimate D2E/DX2                !
 ! D14   D(3,2,7,8)            178.8076         estimate D2E/DX2                !
 ! D15   D(2,3,4,5)             -1.4802         estimate D2E/DX2                !
 ! D16   D(2,3,4,14)          -178.861          estimate D2E/DX2                !
 ! D17   D(18,3,4,5)           178.8573         estimate D2E/DX2                !
 ! D18   D(18,3,4,14)            1.4764         estimate D2E/DX2                !
 ! D19   D(3,4,5,6)              0.6083         estimate D2E/DX2                !
 ! D20   D(14,4,5,6)           178.0707         estimate D2E/DX2                !
 ! D21   D(3,4,14,23)           85.3928         estimate D2E/DX2                !
 ! D22   D(3,4,14,24)         -154.7437         estimate D2E/DX2                !
 ! D23   D(3,4,14,25)          -35.3103         estimate D2E/DX2                !
 ! D24   D(5,4,14,23)          -92.1837         estimate D2E/DX2                !
 ! D25   D(5,4,14,24)           27.6799         estimate D2E/DX2                !
 ! D26   D(5,4,14,25)          147.1133         estimate D2E/DX2                !
 ! D27   D(4,5,6,7)              0.0904         estimate D2E/DX2                !
 ! D28   D(4,5,6,10)          -179.6793         estimate D2E/DX2                !
 ! D29   D(5,6,7,2)              0.0851         estimate D2E/DX2                !
 ! D30   D(5,6,7,8)           -179.6839         estimate D2E/DX2                !
 ! D31   D(10,6,7,2)           179.8692         estimate D2E/DX2                !
 ! D32   D(10,6,7,8)             0.1003         estimate D2E/DX2                !
 ! D33   D(5,6,10,9)           179.5921         estimate D2E/DX2                !
 ! D34   D(7,6,10,9)            -0.208          estimate D2E/DX2                !
 ! D35   D(2,7,8,9)           -179.6233         estimate D2E/DX2                !
 ! D36   D(2,7,8,19)             0.098          estimate D2E/DX2                !
 ! D37   D(6,7,8,9)              0.0975         estimate D2E/DX2                !
 ! D38   D(6,7,8,19)           179.8188         estimate D2E/DX2                !
 ! D39   D(7,8,9,10)            -0.2495         estimate D2E/DX2                !
 ! D40   D(7,8,9,11)           179.7155         estimate D2E/DX2                !
 ! D41   D(19,8,9,10)         -179.9775         estimate D2E/DX2                !
 ! D42   D(19,8,9,11)           -0.0126         estimate D2E/DX2                !
 ! D43   D(8,9,10,6)             0.2589         estimate D2E/DX2                !
 ! D44   D(11,9,10,6)         -179.7075         estimate D2E/DX2                !
 ! D45   D(8,9,11,12)            0.4314         estimate D2E/DX2                !
 ! D46   D(8,9,11,13)         -179.4584         estimate D2E/DX2                !
 ! D47   D(10,9,11,12)        -179.6076         estimate D2E/DX2                !
 ! D48   D(10,9,11,13)           0.5026         estimate D2E/DX2                !
 ! D49   D(9,11,13,20)         -61.5368         estimate D2E/DX2                !
 ! D50   D(9,11,13,21)          61.2262         estimate D2E/DX2                !
 ! D51   D(9,11,13,22)         179.8302         estimate D2E/DX2                !
 ! D52   D(12,11,13,20)        118.5705         estimate D2E/DX2                !
 ! D53   D(12,11,13,21)       -118.6664         estimate D2E/DX2                !
 ! D54   D(12,11,13,22)         -0.0624         estimate D2E/DX2                !
 --------------------------------------------------------------------------------
 Trust Radius=3.00D-01 FncErr=1.00D-07 GrdErr=1.00D-06 EigMax=2.50D+02 EigMin=1.00D-04
 Number of steps in this run=    134 maximum allowed number of steps=    150.
 GradGradGradGradGradGradGradGradGradGradGradGradGradGradGradGradGradGrad

                          Input orientation:                          
 ---------------------------------------------------------------------
 Center     Atomic      Atomic             Coordinates (Angstroms)
 Number     Number       Type             X           Y           Z
 ---------------------------------------------------------------------
      1          6           0        1.098020    0.016940   -0.010290
      2          6           0        0.570290   -0.050760    1.395410
      3          6           0        0.428930   -1.307030    2.006790
      4          6           0       -0.059900   -1.404550    3.306070
      5          7           0       -0.396300   -0.343490    4.064850
      6          6           0       -0.236640    0.851460    3.464310
      7          6           0        0.227060    1.081700    2.173730
      8          6           0        0.260630    2.491620    1.906810
      9          6           0       -0.163980    3.265940    2.972190
     10         16           0       -0.611420    2.287500    4.297450
     11          6           0       -0.236060    4.721750    3.005600
     12          8           0        0.085580    5.408690    2.033960
     13          6           0       -0.715100    5.407080    4.264590
     14          6           0       -0.181500   -2.752920    3.956240
     15          1           0        0.990030    1.018700   -0.435450
     16          1           0        0.548640   -0.676450   -0.655620
     17          1           0        2.159590   -0.249380   -0.022940
     18          1           0        0.697390   -2.208260    1.460840
     19          1           0        0.587970    2.928580    0.969800
     20          1           0       -1.742080    5.109850    4.492680
     21          1           0       -0.049910    5.175200    5.100610
     22          1           0       -0.702370    6.491150    4.113080
     23          1           0        0.772530   -3.031050    4.414110
     24          1           0       -0.951850   -2.735110    4.734060
     25          1           0       -0.463930   -3.517890    3.225900
 ---------------------------------------------------------------------
                    Distance matrix (angstroms):
                    1          2          3          4          5
     1  C    0.000000
     2  C    1.503022   0.000000
     3  C    2.503835   1.404273   0.000000
     4  C    3.789414   2.424976   1.391615   0.000000
     5  N    4.355418   2.854102   2.417649   1.347130   0.000000
     6  C    3.814523   2.396974   2.688201   2.268448   1.346865
     7  C    2.581129   1.416353   2.403050   2.746995   2.448689
     8  C    3.240453   2.611727   3.803691   4.152205   3.623057
     9  C    4.587356   3.745115   4.711220   4.683565   3.778341
    10  S    5.160838   3.909697   4.387493   3.862414   2.649998
    11  C    5.745485   5.100957   6.147034   6.136193   5.177291
    12  O    5.854482   5.517996   6.724546   6.932508   6.119175
    13  C    7.114465   6.298606   7.175356   6.909873   5.762863
    14  C    5.004264   3.797987   2.502714   1.501869   2.421423
    15  H    1.093593   2.161475   3.418829   4.579680   4.902058
    16  H    1.095015   2.144453   2.738684   4.073750   4.825620
    17  H    1.094540   2.139402   2.869427   4.164476   4.821977
    18  H    2.697451   2.162231   1.087358   2.150421   3.384434
    19  H    3.114221   3.009638   4.363603   4.965270   4.610267
    20  H    7.367540   6.447638   7.215905   6.831924   5.633212
    21  H    7.351645   6.436133   7.198633   6.820087   5.625720
    22  H    7.884097   7.197359   8.156464   7.962795   6.841660
    23  H    5.382518   4.246832   2.980855   2.136866   2.951461
    24  H    5.855306   4.546342   3.374014   2.145954   2.544862
    25  H    5.040599   4.054787   2.677934   2.153108   3.284087
                    6          7          8          9         10
     6  C    0.000000
     7  C    1.390548   0.000000
     8  C    2.315860   1.435356   0.000000
     9  C    2.465193   2.358253   1.383799   0.000000
    10  S    1.701997   2.582090   2.552899   1.707004   0.000000
    11  C    3.897379   3.762506   2.535255   1.457976   2.781249
    12  O    4.787282   4.331558   2.925082   2.352431   3.918038
    13  C    4.650059   4.895740   3.874414   2.560959   3.121475
    14  C    3.638213   4.248361   5.648083   6.098798   5.070216
    15  H    4.091554   2.719175   2.861416   4.241914   5.155079
    16  H    4.463742   3.346599   4.084809   5.404745   5.887584
    17  H    4.372034   3.214313   3.852670   5.169841   5.725384
    18  H    3.774678   3.399009   4.741152   5.743954   5.474596
    19  H    3.349177   2.233981   1.084469   2.165365   3.594826
    20  H    4.632254   5.047874   4.189594   2.863965   3.046665
    21  H    4.626778   5.039849   4.183108   2.861548   3.049454
    22  H    5.695956   5.821260   4.668108   3.463159   4.208674
    23  H    4.122430   4.715035   6.086746   6.527501   5.496899
    24  H    3.871340   4.744803   6.064829   6.303771   5.053032
    25  H    4.381748   4.768727   6.195095   6.795196   5.905296
                   11         12         13         14         15
    11  C    0.000000
    12  O    1.232649   0.000000
    13  C    1.511361   2.369979   0.000000
    14  C    7.535077   8.389182   8.183239   0.000000
    15  H    5.201606   5.117424   6.652498   5.906314   0.000000
    16  H    6.569692   6.669122   7.925582   5.110194   1.765456
    17  H    6.294706   6.367583   7.657826   5.251884   1.773714
    18  H    7.161191   7.662944   8.237084   2.701134   3.754307
    19  H    2.835307   2.745137   4.323956   6.464546   2.404999
    20  H    2.151772   3.078141   1.093187   8.034073   6.963361
    21  H    2.151589   3.078509   1.093241   8.011366   7.000423
    22  H    2.138863   2.472918   1.094680   9.260061   7.314441
    23  H    7.943995   8.795807   8.569565   1.094155   6.321868
    24  H    7.687957   8.642238   8.159149   1.094879   6.677261
    25  H    8.245734   9.022556   8.988718   1.094688   6.008339
                   16         17         18         19         20
    16  H    0.000000
    17  H    1.782648   0.000000
    18  H    2.616863   2.859518   0.000000
    19  H    3.954716   3.681705   5.161416   0.000000
    20  H    8.076736   8.020923   8.288414   4.753710   0.000000
    21  H    8.230082   7.781949   8.265704   4.745291   1.799247
    22  H    8.699426   8.410245   9.201817   4.923118   1.770052
    23  H    5.594321   5.417475   3.066665   6.885820   8.520780
    24  H    5.961393   6.203947   3.702909   6.972667   7.888354
    25  H    4.915819   5.302921   2.485806   6.910388   8.813416
                   21         22         23         24         25
    21  H    0.000000
    22  H    1.769928   0.000000
    23  H    8.275882   9.640448   0.000000
    24  H    7.969997   9.250499   1.778605   0.000000
    25  H    8.902571  10.051111   1.782608   1.767868   0.000000
 Stoichiometry    C11H11NOS
 Framework group  C1[X(C11H11NOS)]
 Deg. of freedom    69
 Full point group                 C1      NOp   1
 Largest Abelian subgroup         C1      NOp   1
 Largest concise Abelian subgroup C1      NOp   1
                         Standard orientation:                         
 ---------------------------------------------------------------------
 Center     Atomic      Atomic             Coordinates (Angstroms)
 Number     Number       Type             X           Y           Z
 ---------------------------------------------------------------------
      1          6           0        1.832227    2.906823    0.004577
      2          6           0        1.715390    1.408440   -0.011973
      3          6           0        2.888434    0.636665    0.005735
      4          6           0        2.814998   -0.752895   -0.012196
      5          7           0        1.659327   -1.445105   -0.017759
      6          6           0        0.547578   -0.684803   -0.017472
      7          6           0        0.486418    0.704395   -0.013882
      8          6           0       -0.882186    1.136977   -0.007425
      9          6           0       -1.791393    0.093794   -0.004181
     10         16           0       -0.990483   -1.413610   -0.015888
     11          6           0       -3.244187    0.215985    0.008247
     12          8           0       -3.801779    1.315309    0.009383
     13          6           0       -4.088938   -1.037172    0.022585
     14          6           0        4.077221   -1.565520    0.033006
     15          1           0        0.871737    3.390014   -0.195253
     16          1           0        2.536168    3.241023   -0.764732
     17          1           0        2.188622    3.241938    0.983708
     18          1           0        3.858822    1.126765    0.028030
     19          1           0       -1.194871    2.175369   -0.000852
     20          1           0       -3.904904   -1.630701   -0.876811
     21          1           0       -3.884423   -1.623561    0.922305
     22          1           0       -5.147663   -0.759138    0.033689
     23          1           0        4.389681   -1.707465    1.071945
     24          1           0        3.916719   -2.548196   -0.422349
     25          1           0        4.883424   -1.071164   -0.518347
 ---------------------------------------------------------------------
 Rotational constants (GHZ):           1.3034560           0.3881307           0.3008160
 Standard basis: 6-31G(d) (6D, 7F)
 There are   236 symmetry adapted cartesian basis functions of A   symmetry.
 There are   236 symmetry adapted basis functions of A   symmetry.
   236 basis functions,   460 primitive gaussians,   236 cartesian basis functions
    54 alpha electrons       54 beta electrons
       nuclear repulsion energy       942.3249714463 Hartrees.
 NAtoms=   25 NActive=   25 NUniq=   25 SFac= 1.00D+00 NAtFMM=   60 NAOKFM=F Big=F
 Integral buffers will be    131072 words long.
 Raffenetti 2 integral format.
 Two-electron integral symmetry is turned on.
 Nuclear repulsion after empirical dispersion term =      942.2718868491 Hartrees.
 One-electron integrals computed using PRISM.
 NBasis=   236 RedAO= T EigKep=  4.82D-04  NBF=   236
 NBsUse=   236 1.00D-06 EigRej= -1.00D+00 NBFU=   236
 ExpMin= 1.17D-01 ExpMax= 2.19D+04 ExpMxC= 3.30D+03 IAcc=3 IRadAn=         5 AccDes= 0.00D+00
 Harris functional with IExCor=  402 and IRadAn=       5 diagonalized for initial guess.
 HarFok:  IExCor=  402 AccDes= 0.00D+00 IRadAn=         5 IDoV= 1 UseB2=F ITyADJ=14
 ICtDFT=  3500011 ScaDFX=  1.000000  1.000000  1.000000  1.000000
 FoFCou: FMM=F IPFlag=           0 FMFlag=      100000 FMFlg1=           0
         NFxFlg=           0 DoJE=T BraDBF=F KetDBF=T FulRan=T
         wScrn=  0.000000 ICntrl=       500 IOpCl=  0 I1Cent=   200000004 NGrid=           0
         NMat0=    1 NMatS0=      1 NMatT0=    0 NMatD0=    1 NMtDS0=    0 NMtDT0=    0
 Petite list used in FoFCou.
 Keep R1 ints in memory in canonical form, NReq=397720080.
 Requested convergence on RMS density matrix=1.00D-08 within  32 cycles.
 Requested convergence on MAX density matrix=1.00D-06.
 Requested convergence on             energy=1.00D-06.
 No special actions if energy rises.
 Integral accuracy reduced to 1.0D-05 until final iterations.
 Initial convergence to 1.0D-05 achieved.  Increase integral accuracy.
 SCF Done:  E(RB3LYP) =  -954.024960385     A.U. after   15 cycles
            NFock= 15  Conv=0.91D-08     -V/T= 2.0067
 QCSCF skips out because SCF is already converged.

 **********************************************************************

            Population analysis using the SCF density.

 **********************************************************************

 Orbital symmetries:
       Occupied  (A) (A) (A) (A) (A) (A) (A) (A) (A) (A) (A) (A)
                 (A) (A) (A) (A) (A) (A) (A) (A) (A) (A) (A) (A)
                 (A) (A) (A) (A) (A) (A) (A) (A) (A) (A) (A) (A)
                 (A) (A) (A) (A) (A) (A) (A) (A) (A) (A) (A) (A)
                 (A) (A) (A) (A) (A) (A)
       Virtual   (A) (A) (A) (A) (A) (A) (A) (A) (A) (A) (A) (A)
                 (A) (A) (A) (A) (A) (A) (A) (A) (A) (A) (A) (A)
                 (A) (A) (A) (A) (A) (A) (A) (A) (A) (A) (A) (A)
                 (A) (A) (A) (A) (A) (A) (A) (A) (A) (A) (A) (A)
                 (A) (A) (A) (A) (A) (A) (A) (A) (A) (A) (A) (A)
                 (A) (A) (A) (A) (A) (A) (A) (A) (A) (A) (A) (A)
                 (A) (A) (A) (A) (A) (A) (A) (A) (A) (A) (A) (A)
                 (A) (A) (A) (A) (A) (A) (A) (A) (A) (A) (A) (A)
                 (A) (A) (A) (A) (A) (A) (A) (A) (A) (A) (A) (A)
                 (A) (A) (A) (A) (A) (A) (A) (A) (A) (A) (A) (A)
                 (A) (A) (A) (A) (A) (A) (A) (A) (A) (A) (A) (A)
                 (A) (A) (A) (A) (A) (A) (A) (A) (A) (A) (A) (A)
                 (A) (A) (A) (A) (A) (A) (A) (A) (A) (A) (A) (A)
                 (A) (A) (A) (A) (A) (A) (A) (A) (A) (A) (A) (A)
                 (A) (A) (A) (A) (A) (A) (A) (A) (A) (A) (A) (A)
                 (A) (A)
 The electronic state is 1-A.
 Alpha  occ. eigenvalues --  -88.91022 -19.13284 -14.33667 -10.27975 -10.25239
 Alpha  occ. eigenvalues --  -10.23822 -10.22990 -10.22582 -10.21246 -10.21105
 Alpha  occ. eigenvalues --  -10.20141 -10.19925 -10.18866 -10.18598  -7.97374
 Alpha  occ. eigenvalues --   -5.93771  -5.93402  -5.93035  -1.02848  -0.96046
 Alpha  occ. eigenvalues --   -0.88623  -0.83252  -0.78353  -0.75409  -0.73903
 Alpha  occ. eigenvalues --   -0.71945  -0.70169  -0.63086  -0.60434  -0.58288
 Alpha  occ. eigenvalues --   -0.53818  -0.50619  -0.48047  -0.46534  -0.46258
 Alpha  occ. eigenvalues --   -0.45508  -0.44688  -0.43197  -0.42299  -0.41549
 Alpha  occ. eigenvalues --   -0.41077  -0.40881  -0.40086  -0.38735  -0.38142
 Alpha  occ. eigenvalues --   -0.36661  -0.36520  -0.34868  -0.33138  -0.30121
 Alpha  occ. eigenvalues --   -0.26983  -0.25134  -0.24930  -0.23039
 Alpha virt. eigenvalues --   -0.07243  -0.02753   0.00759   0.03013   0.06915
 Alpha virt. eigenvalues --    0.09238   0.10740   0.11140   0.12138   0.12278
 Alpha virt. eigenvalues --    0.13146   0.14267   0.15748   0.16178   0.16891
 Alpha virt. eigenvalues --    0.17243   0.17487   0.20296   0.20820   0.22056
 Alpha virt. eigenvalues --    0.22410   0.24561   0.25650   0.26912   0.30744
 Alpha virt. eigenvalues --    0.32506   0.32766   0.36865   0.37044   0.38380
 Alpha virt. eigenvalues --    0.40257   0.41693   0.43786   0.47075   0.47903
 Alpha virt. eigenvalues --    0.50339   0.51183   0.52856   0.53919   0.54134
 Alpha virt. eigenvalues --    0.55552   0.55877   0.56728   0.57606   0.58073
 Alpha virt. eigenvalues --    0.59058   0.61709   0.61962   0.62809   0.63305
 Alpha virt. eigenvalues --    0.65031   0.66617   0.67853   0.69252   0.70241
 Alpha virt. eigenvalues --    0.71040   0.72249   0.73931   0.76740   0.78407
 Alpha virt. eigenvalues --    0.78796   0.80213   0.81747   0.82171   0.83067
 Alpha virt. eigenvalues --    0.84925   0.85412   0.86319   0.86871   0.88403
 Alpha virt. eigenvalues --    0.88896   0.89602   0.90346   0.91104   0.91890
 Alpha virt. eigenvalues --    0.93999   0.94486   0.95113   0.96360   0.97376
 Alpha virt. eigenvalues --    0.97985   1.01341   1.02911   1.03621   1.04169
 Alpha virt. eigenvalues --    1.05794   1.08329   1.11971   1.14553   1.16848
 Alpha virt. eigenvalues --    1.21412   1.23494   1.26333   1.26944   1.29915
 Alpha virt. eigenvalues --    1.32250   1.33855   1.34750   1.38250   1.39019
 Alpha virt. eigenvalues --    1.40560   1.41742   1.43956   1.45721   1.47651
 Alpha virt. eigenvalues --    1.49257   1.53679   1.58002   1.60389   1.61751
 Alpha virt. eigenvalues --    1.66663   1.68771   1.74388   1.77271   1.78470
 Alpha virt. eigenvalues --    1.81037   1.81807   1.82323   1.84988   1.87145
 Alpha virt. eigenvalues --    1.87590   1.90098   1.90351   1.91154   1.92462
 Alpha virt. eigenvalues --    1.93817   1.97428   1.99294   2.01748   2.04997
 Alpha virt. eigenvalues --    2.10073   2.11849   2.14091   2.15464   2.16896
 Alpha virt. eigenvalues --    2.19357   2.21907   2.22567   2.24303   2.27020
 Alpha virt. eigenvalues --    2.28683   2.29622   2.33156   2.33797   2.35120
 Alpha virt. eigenvalues --    2.36625   2.37526   2.39753   2.41338   2.41666
 Alpha virt. eigenvalues --    2.49311   2.50801   2.53087   2.62157   2.66238
 Alpha virt. eigenvalues --    2.68111   2.68745   2.73404   2.75580   2.81406
 Alpha virt. eigenvalues --    2.83248   2.87215   2.94383   2.94994   3.01667
 Alpha virt. eigenvalues --    3.10146   3.21529   3.40066   3.94832   3.97064
 Alpha virt. eigenvalues --    4.06211   4.10744   4.13201   4.18523   4.20812
 Alpha virt. eigenvalues --    4.23655   4.31194   4.32766   4.38949   4.44897
 Alpha virt. eigenvalues --    4.56348   4.70969
          Condensed to atoms (all electrons):
               1          2          3          4          5          6
     1  C    5.234478   0.349743  -0.086123   0.005791  -0.000192   0.010470
     2  C    0.349743   4.845688   0.491297  -0.014828  -0.054671  -0.042104
     3  C   -0.086123   0.491297   5.145069   0.474984  -0.033635  -0.060535
     4  C    0.005791  -0.014828   0.474984   4.602172   0.474732  -0.047155
     5  N   -0.000192  -0.054671  -0.033635   0.474732   6.909647   0.353963
     6  C    0.010470  -0.042104  -0.060535  -0.047155   0.353963   5.130646
     7  C   -0.055053   0.463492   0.003005  -0.038003  -0.015695   0.407967
     8  C   -0.016503  -0.080224   0.010869   0.000209   0.010491  -0.053373
     9  C    0.000106   0.009910  -0.000342  -0.000004   0.000715  -0.055557
    10  S   -0.000378   0.007595   0.001674   0.003077  -0.052060   0.308104
    11  C    0.000005  -0.000112  -0.000000   0.000002  -0.000040   0.002012
    12  O    0.000001  -0.000004  -0.000000   0.000000   0.000000  -0.000047
    13  C    0.000000  -0.000000  -0.000000   0.000000   0.000001  -0.000043
    14  C   -0.000245   0.003332  -0.080830   0.355203  -0.079694   0.006078
    15  H    0.361485  -0.025481   0.003935  -0.000162   0.000005   0.000049
    16  H    0.365777  -0.025892  -0.003566  -0.000023   0.000009  -0.000211
    17  H    0.365118  -0.025105  -0.003137  -0.000002   0.000015  -0.000245
    18  H   -0.007232  -0.047194   0.354243  -0.038203   0.005177   0.000105
    19  H    0.002505  -0.004737  -0.000113   0.000000  -0.000075   0.006190
    20  H   -0.000000   0.000000   0.000000   0.000000  -0.000000   0.000033
    21  H   -0.000000   0.000000   0.000000   0.000000  -0.000000   0.000031
    22  H    0.000000  -0.000000   0.000000  -0.000000   0.000000  -0.000002
    23  H    0.000004  -0.000076  -0.000468  -0.026177  -0.001223  -0.000075
    24  H    0.000004  -0.000048   0.003700  -0.023230   0.004212   0.000472
    25  H   -0.000002   0.000283   0.001738  -0.031515   0.003022  -0.000231
               7          8          9         10         11         12
     1  C   -0.055053  -0.016503   0.000106  -0.000378   0.000005   0.000001
     2  C    0.463492  -0.080224   0.009910   0.007595  -0.000112  -0.000004
     3  C    0.003005   0.010869  -0.000342   0.001674  -0.000000  -0.000000
     4  C   -0.038003   0.000209  -0.000004   0.003077   0.000002   0.000000
     5  N   -0.015695   0.010491   0.000715  -0.052060  -0.000040   0.000000
     6  C    0.407967  -0.053373  -0.055557   0.308104   0.002012  -0.000047
     7  C    4.850245   0.372656  -0.004733  -0.081839   0.006702   0.001106
     8  C    0.372656   5.225581   0.442910  -0.107160  -0.008909   0.003188
     9  C   -0.004733   0.442910   5.564338   0.281693   0.239430  -0.101969
    10  S   -0.081839  -0.107160   0.281693  15.398955  -0.041553   0.002999
    11  C    0.006702  -0.008909   0.239430  -0.041553   4.496586   0.601829
    12  O    0.001106   0.003188  -0.101969   0.002999   0.601829   8.029918
    13  C   -0.000048   0.009124  -0.144173   0.005791   0.342079  -0.095820
    14  C    0.001913   0.000020   0.000000  -0.000494  -0.000000   0.000000
    15  H   -0.004301   0.005613   0.000000  -0.000007  -0.000005  -0.000003
    16  H    0.001668   0.000120   0.000001   0.000010  -0.000000  -0.000000
    17  H   -0.000443   0.000340   0.000005   0.000010   0.000000  -0.000000
    18  H    0.004916  -0.000069   0.000001   0.000042  -0.000000  -0.000000
    19  H   -0.033792   0.357887  -0.051878   0.005742  -0.004437   0.008002
    20  H    0.000012  -0.000343   0.002745   0.001796  -0.020028   0.001709
    21  H    0.000012  -0.000353   0.002814   0.001722  -0.020115   0.001709
    22  H   -0.000000  -0.000104   0.006723  -0.000203  -0.020337   0.006108
    23  H    0.000001  -0.000000  -0.000000   0.000018  -0.000000   0.000000
    24  H   -0.000052  -0.000001   0.000000   0.000015  -0.000000   0.000000
    25  H    0.000004  -0.000000  -0.000000   0.000009   0.000000  -0.000000
              13         14         15         16         17         18
     1  C    0.000000  -0.000245   0.361485   0.365777   0.365118  -0.007232
     2  C   -0.000000   0.003332  -0.025481  -0.025892  -0.025105  -0.047194
     3  C   -0.000000  -0.080830   0.003935  -0.003566  -0.003137   0.354243
     4  C    0.000000   0.355203  -0.000162  -0.000023  -0.000002  -0.038203
     5  N    0.000001  -0.079694   0.000005   0.000009   0.000015   0.005177
     6  C   -0.000043   0.006078   0.000049  -0.000211  -0.000245   0.000105
     7  C   -0.000048   0.001913  -0.004301   0.001668  -0.000443   0.004916
     8  C    0.009124   0.000020   0.005613   0.000120   0.000340  -0.000069
     9  C   -0.144173   0.000000   0.000000   0.000001   0.000005   0.000001
    10  S    0.005791  -0.000494  -0.000007   0.000010   0.000010   0.000042
    11  C    0.342079  -0.000000  -0.000005  -0.000000   0.000000  -0.000000
    12  O   -0.095820   0.000000  -0.000003  -0.000000  -0.000000  -0.000000
    13  C    5.388615  -0.000000  -0.000000  -0.000000  -0.000000  -0.000000
    14  C   -0.000000   5.230129   0.000002   0.000000  -0.000000  -0.004598
    15  H   -0.000000   0.000002   0.540118  -0.026974  -0.026334   0.000061
    16  H   -0.000000   0.000000  -0.026974   0.538854  -0.026631   0.003142
    17  H   -0.000000  -0.000000  -0.026334  -0.026631   0.535346   0.001374
    18  H   -0.000000  -0.004598   0.000061   0.003142   0.001374   0.594179
    19  H    0.000410  -0.000000   0.003524  -0.000066  -0.000097  -0.000003
    20  H    0.348832  -0.000000   0.000000  -0.000000   0.000000  -0.000000
    21  H    0.348932  -0.000000   0.000000   0.000000  -0.000000  -0.000000
    22  H    0.349424  -0.000000   0.000000  -0.000000  -0.000000  -0.000000
    23  H    0.000000   0.363715  -0.000000   0.000001  -0.000001   0.000398
    24  H    0.000000   0.358828  -0.000000   0.000000  -0.000000  -0.000068
    25  H    0.000000   0.361248   0.000000  -0.000005   0.000001   0.002809
              19         20         21         22         23         24
     1  C    0.002505  -0.000000  -0.000000   0.000000   0.000004   0.000004
     2  C   -0.004737   0.000000   0.000000  -0.000000  -0.000076  -0.000048
     3  C   -0.000113   0.000000   0.000000   0.000000  -0.000468   0.003700
     4  C    0.000000   0.000000   0.000000  -0.000000  -0.026177  -0.023230
     5  N   -0.000075  -0.000000  -0.000000   0.000000  -0.001223   0.004212
     6  C    0.006190   0.000033   0.000031  -0.000002  -0.000075   0.000472
     7  C   -0.033792   0.000012   0.000012  -0.000000   0.000001  -0.000052
     8  C    0.357887  -0.000343  -0.000353  -0.000104  -0.000000  -0.000001
     9  C   -0.051878   0.002745   0.002814   0.006723  -0.000000   0.000000
    10  S    0.005742   0.001796   0.001722  -0.000203   0.000018   0.000015
    11  C   -0.004437  -0.020028  -0.020115  -0.020337  -0.000000  -0.000000
    12  O    0.008002   0.001709   0.001709   0.006108   0.000000   0.000000
    13  C    0.000410   0.348832   0.348932   0.349424   0.000000   0.000000
    14  C   -0.000000  -0.000000  -0.000000  -0.000000   0.363715   0.358828
    15  H    0.003524   0.000000   0.000000   0.000000  -0.000000  -0.000000
    16  H   -0.000066  -0.000000   0.000000  -0.000000   0.000001   0.000000
    17  H   -0.000097   0.000000  -0.000000  -0.000000  -0.000001  -0.000000
    18  H   -0.000003  -0.000000  -0.000000  -0.000000   0.000398  -0.000068
    19  H    0.541948  -0.000016  -0.000017  -0.000003   0.000000   0.000000
    20  H   -0.000016   0.531565  -0.024019  -0.021936   0.000000  -0.000000
    21  H   -0.000017  -0.024019   0.531596  -0.021976  -0.000000   0.000000
    22  H   -0.000003  -0.021936  -0.021976   0.518411   0.000000   0.000000
    23  H    0.000000   0.000000  -0.000000   0.000000   0.542006  -0.023044
    24  H    0.000000  -0.000000   0.000000   0.000000  -0.023044   0.528023
    25  H    0.000000   0.000000   0.000000   0.000000  -0.028253  -0.026208
              25
     1  C   -0.000002
     2  C    0.000283
     3  C    0.001738
     4  C   -0.031515
     5  N    0.003022
     6  C   -0.000231
     7  C    0.000004
     8  C   -0.000000
     9  C   -0.000000
    10  S    0.000009
    11  C    0.000000
    12  O   -0.000000
    13  C    0.000000
    14  C    0.361248
    15  H    0.000000
    16  H   -0.000005
    17  H    0.000001
    18  H    0.002809
    19  H    0.000000
    20  H    0.000000
    21  H    0.000000
    22  H    0.000000
    23  H   -0.028253
    24  H   -0.026208
    25  H    0.562798
 Mulliken charges:
               1
     1  C   -0.529757
     2  C    0.149136
     3  C   -0.221764
     4  C    0.303132
     5  N   -0.524704
     6  C    0.033459
     7  C    0.120261
     8  C   -0.171968
     9  C   -0.192735
    10  S    0.264440
    11  C    0.426891
    12  O   -0.458726
    13  C   -0.553125
    14  C   -0.514607
    15  H    0.168475
    16  H    0.173787
    17  H    0.179786
    18  H    0.130918
    19  H    0.169025
    20  H    0.179650
    21  H    0.179663
    22  H    0.183894
    23  H    0.173173
    24  H    0.177396
    25  H    0.154299
 Sum of Mulliken charges =  -0.00000
 Mulliken charges with hydrogens summed into heavy atoms:
               1
     1  C   -0.007710
     2  C    0.149136
     3  C   -0.090846
     4  C    0.303132
     5  N   -0.524704
     6  C    0.033459
     7  C    0.120261
     8  C   -0.002943
     9  C   -0.192735
    10  S    0.264440
    11  C    0.426891
    12  O   -0.458726
    13  C   -0.009917
    14  C   -0.009738
 Electronic spatial extent (au):  <R**2>=           3564.0938
 Charge=             -0.0000 electrons
 Dipole moment (field-independent basis, Debye):
    X=              3.0365    Y=              0.6061    Z=              0.1048  Tot=              3.0981
 Quadrupole moment (field-independent basis, Debye-Ang):
   XX=            -84.7721   YY=            -88.1372   ZZ=            -88.5488
   XY=             12.7756   XZ=              0.2929   YZ=             -0.0374
 Traceless Quadrupole moment (field-independent basis, Debye-Ang):
   XX=              2.3806   YY=             -0.9845   ZZ=             -1.3961
   XY=             12.7756   XZ=              0.2929   YZ=             -0.0374
 Octapole moment (field-independent basis, Debye-Ang**2):
  XXX=             49.2681  YYY=             18.6789  ZZZ=              1.2429  XYY=             11.5211
  XXY=            -37.5595  XXZ=              0.6079  XZZ=             -6.2826  YZZ=             -0.0124
  YYZ=             -0.2007  XYZ=             -0.1415
 Hexadecapole moment (field-independent basis, Debye-Ang**3):
 XXXX=          -3452.0311 YYYY=          -1120.3087 ZZZZ=           -110.7076 XXXY=            147.3754
 XXXZ=             -0.5432 YYYX=             17.7968 YYYZ=              2.2191 ZZZX=              3.5813
 ZZZY=              0.0837 XXYY=           -791.6319 XXZZ=           -593.4381 YYZZ=           -204.6370
 XXYZ=             -3.0461 YYXZ=             -0.2897 ZZXY=             -3.3414
 N-N= 9.422718868491D+02 E-N=-4.121118757666D+03  KE= 9.476486912788D+02
 Calling FoFJK, ICntrl=      2127 FMM=F ISym2X=0 I1Cent= 0 IOpClX= 0 NMat=1 NMatS=1 NMatT=0.
 ***** Axes restored to original set *****
 -------------------------------------------------------------------
 Center     Atomic                   Forces (Hartrees/Bohr)
 Number     Number              X              Y              Z
 -------------------------------------------------------------------
      1        6          -0.003303455    0.007734487    0.000223150
      2        6           0.001320222   -0.013762367    0.003502154
      3        6           0.002316986    0.019871259   -0.014888983
      4        6          -0.005146772    0.000406542    0.020681993
      5        7           0.003511676    0.000182061   -0.013587511
      6        6          -0.005090885   -0.033920653    0.019691827
      7        6           0.006687207    0.009071905   -0.020603935
      8        6           0.001778933    0.004253896   -0.005828543
      9        6           0.010032290   -0.008135042   -0.027110740
     10       16          -0.014611168    0.007680851    0.038846617
     11        6           0.003692478    0.026391479   -0.012938136
     12        8          -0.000938680   -0.012612123    0.004043618
     13        6          -0.000094559    0.004760653   -0.000193150
     14        6          -0.006943969   -0.001243859    0.001001484
     15        1           0.001292703   -0.000104507   -0.000413307
     16        1           0.002234394   -0.001142851   -0.000233574
     17        1           0.000755070   -0.000683047   -0.002295701
     18        1          -0.000981096    0.000985079    0.000107143
     19        1          -0.000516416    0.001651126    0.001338025
     20        1          -0.000347319   -0.003040131    0.005094922
     21        1          -0.002801915   -0.003155120    0.004173863
     22        1           0.000852638   -0.002526830   -0.002235661
     23        1           0.000722603   -0.002725777    0.001140936
     24        1           0.002716645    0.001253706    0.000679610
     25        1           0.002862387   -0.001190737   -0.000196100
 -------------------------------------------------------------------
 Cartesian Forces:  Max     0.038846617 RMS     0.010107065

 GradGradGradGradGradGradGradGradGradGradGradGradGradGradGradGradGradGrad
 Berny optimization.
 FormGI is forming the generalized inverse of G from B-inverse, IUseBI=4.
 Internal  Forces:  Max     0.031428641 RMS     0.005849035
 Search for a local minimum.
 Step number   1 out of a maximum of  134
 All quantities printed in internal units (Hartrees-Bohrs-Radians)
 Mixed Optimization -- RFO/linear search
 Second derivative matrix not updated -- first step.
 ITU=  0
     Eigenvalues ---    0.00616   0.00726   0.00741   0.00907   0.01322
     Eigenvalues ---    0.01449   0.01598   0.01713   0.01816   0.01872
     Eigenvalues ---    0.01965   0.02021   0.02096   0.02115   0.02142
     Eigenvalues ---    0.02313   0.07202   0.07214   0.07282   0.07356
     Eigenvalues ---    0.07378   0.07483   0.16000   0.16000   0.16000
     Eigenvalues ---    0.16000   0.16000   0.16000   0.16000   0.16000
     Eigenvalues ---    0.16000   0.16000   0.16000   0.23514   0.23662
     Eigenvalues ---    0.24984   0.24990   0.24992   0.24999   0.25000
     Eigenvalues ---    0.25000   0.25000   0.25000   0.31214   0.32062
     Eigenvalues ---    0.32182   0.33904   0.34239   0.34255   0.34276
     Eigenvalues ---    0.34277   0.34293   0.34337   0.34401   0.34441
     Eigenvalues ---    0.34447   0.34503   0.35120   0.35460   0.37219
     Eigenvalues ---    0.39220   0.40791   0.42034   0.44474   0.46217
     Eigenvalues ---    0.47471   0.53689   0.54849   0.89992
 RFO step:  Lambda=-1.22630357D-02 EMin= 6.15662058D-03
 Linear search not attempted -- first point.
 Iteration  1 RMS(Cart)=  0.04920300 RMS(Int)=  0.00063696
 Iteration  2 RMS(Cart)=  0.00106993 RMS(Int)=  0.00011051
 Iteration  3 RMS(Cart)=  0.00000025 RMS(Int)=  0.00011051
 Variable       Old X    -DE/DX   Delta X   Delta X   Delta X     New X
                                 (Linear)    (Quad)   (Total)
    R1        2.84030   0.00315   0.00000   0.00946   0.00946   2.84976
    R2        2.06659  -0.00006   0.00000  -0.00018  -0.00018   2.06642
    R3        2.06928  -0.00026   0.00000  -0.00073  -0.00073   2.06855
    R4        2.06838   0.00093   0.00000   0.00260   0.00260   2.07099
    R5        2.65369  -0.01032   0.00000  -0.02328  -0.02331   2.63038
    R6        2.67652  -0.00552   0.00000  -0.01191  -0.01198   2.66454
    R7        2.62977   0.01767   0.00000   0.03528   0.03532   2.66509
    R8        2.05481  -0.00111   0.00000  -0.00306  -0.00306   2.05175
    R9        2.54571  -0.00768   0.00000  -0.01397  -0.01390   2.53181
   R10        2.83812   0.00470   0.00000   0.01406   0.01406   2.85218
   R11        2.54521  -0.00755   0.00000  -0.01252  -0.01248   2.53272
   R12        2.62776   0.02609   0.00000   0.05717   0.05715   2.68490
   R13        3.21631   0.02354   0.00000   0.06730   0.06756   3.28387
   R14        2.71243  -0.00380   0.00000  -0.01059  -0.01084   2.70159
   R15        2.61500  -0.00728   0.00000  -0.01744  -0.01764   2.59736
   R16        2.04935  -0.00065   0.00000  -0.00176  -0.00176   2.04759
   R17        3.22577   0.03143   0.00000   0.08537   0.08547   3.31124
   R18        2.75518   0.00974   0.00000   0.02533   0.02533   2.78051
   R19        2.32937  -0.01046   0.00000  -0.01147  -0.01147   2.31790
   R20        2.85606   0.00466   0.00000   0.01436   0.01436   2.87042
   R21        2.06582   0.00222   0.00000   0.00621   0.00621   2.07204
   R22        2.06593   0.00216   0.00000   0.00605   0.00605   2.07197
   R23        2.06865  -0.00218   0.00000  -0.00615  -0.00615   2.06250
   R24        2.06765   0.00180   0.00000   0.00506   0.00506   2.07271
   R25        2.06902  -0.00141   0.00000  -0.00397  -0.00397   2.06505
   R26        2.06866   0.00022   0.00000   0.00063   0.00063   2.06929
    A1        1.95001   0.00105   0.00000   0.00877   0.00871   1.95871
    A2        1.92463   0.00091   0.00000   0.00527   0.00522   1.92985
    A3        1.91812   0.00223   0.00000   0.01037   0.01034   1.92847
    A4        1.87695   0.00003   0.00000   0.00515   0.00507   1.88202
    A5        1.89037  -0.00169   0.00000  -0.00963  -0.00967   1.88070
    A6        1.90256  -0.00274   0.00000  -0.02114  -0.02114   1.88143
    A7        2.07467   0.00904   0.00000   0.03470   0.03475   2.10942
    A8        2.16882  -0.00655   0.00000  -0.02476  -0.02471   2.14411
    A9        2.03941  -0.00248   0.00000  -0.00965  -0.00982   2.02959
   A10        2.09964   0.00678   0.00000   0.02513   0.02509   2.12473
   A11        2.09211  -0.00360   0.00000  -0.01379  -0.01378   2.07834
   A12        2.09142  -0.00318   0.00000  -0.01132  -0.01130   2.08012
   A13        2.16326  -0.00420   0.00000  -0.01856  -0.01856   2.14470
   A14        2.08925   0.00410   0.00000   0.01727   0.01716   2.10641
   A15        2.02984   0.00012   0.00000   0.00212   0.00202   2.03186
   A16        2.00210   0.00213   0.00000   0.00962   0.00974   2.01184
   A17        2.21462  -0.00148   0.00000  -0.00591  -0.00605   2.20857
   A18        2.09926   0.00721   0.00000   0.02103   0.02094   2.12020
   A19        1.96930  -0.00573   0.00000  -0.01511  -0.01489   1.95442
   A20        2.04704  -0.00073   0.00000  -0.00010  -0.00010   2.04693
   A21        2.31520  -0.00658   0.00000  -0.02811  -0.02790   2.28730
   A22        1.92094   0.00731   0.00000   0.02822   0.02801   1.94895
   A23        1.98155  -0.00175   0.00000  -0.01467  -0.01515   1.96640
   A24        2.16944   0.00301   0.00000   0.01976   0.02000   2.18944
   A25        2.13219  -0.00127   0.00000  -0.00509  -0.00485   2.12734
   A26        1.93629   0.01065   0.00000   0.03459   0.03443   1.97073
   A27        2.20377  -0.01042   0.00000  -0.03673  -0.03665   2.16711
   A28        2.14312  -0.00023   0.00000   0.00214   0.00222   2.14535
   A29        1.61668  -0.01048   0.00000  -0.03301  -0.03240   1.58428
   A30        2.12409  -0.00752   0.00000  -0.02866  -0.02866   2.09544
   A31        2.08006  -0.00402   0.00000  -0.01531  -0.01531   2.06475
   A32        2.07903   0.01153   0.00000   0.04397   0.04397   2.12300
   A33        1.92653   0.00272   0.00000   0.01213   0.01216   1.93869
   A34        1.92622   0.00270   0.00000   0.01210   0.01213   1.93835
   A35        1.90718  -0.00365   0.00000  -0.01411  -0.01408   1.89310
   A36        1.93305  -0.00573   0.00000  -0.04643  -0.04640   1.88665
   A37        1.88500   0.00193   0.00000   0.01814   0.01816   1.90317
   A38        1.88474   0.00198   0.00000   0.01863   0.01866   1.90340
   A39        1.91641   0.00265   0.00000   0.01108   0.01109   1.92750
   A40        1.92827  -0.00114   0.00000  -0.00451  -0.00453   1.92374
   A41        1.93847   0.00101   0.00000   0.00806   0.00803   1.94651
   A42        1.89688  -0.00171   0.00000  -0.01424  -0.01422   1.88266
   A43        1.90341  -0.00277   0.00000  -0.02004  -0.02004   1.88337
   A44        1.87948   0.00184   0.00000   0.01894   0.01889   1.89837
    D1        2.95958   0.00010   0.00000  -0.00954  -0.00954   2.95004
    D2       -0.20835   0.00044   0.00000   0.00397   0.00400  -0.20436
    D3        0.87318  -0.00124   0.00000  -0.02524  -0.02528   0.84790
    D4       -2.29475  -0.00089   0.00000  -0.01173  -0.01175  -2.30650
    D5       -1.22467   0.00016   0.00000  -0.00897  -0.00896  -1.23363
    D6        1.89058   0.00050   0.00000   0.00455   0.00458   1.89516
    D7       -3.13883  -0.00044   0.00000  -0.01043  -0.01033   3.13403
    D8       -0.00312  -0.00033   0.00000  -0.00687  -0.00674  -0.00987
    D9        0.02717  -0.00068   0.00000  -0.02265  -0.02273   0.00444
   D10       -3.12032  -0.00057   0.00000  -0.01909  -0.01914  -3.13946
   D11       -3.13140  -0.00008   0.00000  -0.00105  -0.00091  -3.13231
   D12        0.00505   0.00001   0.00000   0.00136   0.00149   0.00654
   D13       -0.01566   0.00042   0.00000   0.01283   0.01268  -0.00298
   D14        3.12078   0.00051   0.00000   0.01525   0.01508   3.13587
   D15       -0.02583   0.00070   0.00000   0.02346   0.02348  -0.00235
   D16       -3.12171   0.00004   0.00000   0.00100   0.00113  -3.12058
   D17        3.12165   0.00059   0.00000   0.01991   0.01990   3.14155
   D18        0.02577  -0.00007   0.00000  -0.00255  -0.00245   0.02332
   D19        0.01062  -0.00046   0.00000  -0.01220  -0.01194  -0.00132
   D20        3.10792   0.00028   0.00000   0.00995   0.00992   3.11784
   D21        1.49038   0.00025   0.00000   0.00906   0.00916   1.49954
   D22       -2.70079  -0.00090   0.00000  -0.00436  -0.00430  -2.70509
   D23       -0.61628   0.00131   0.00000   0.02160   0.02171  -0.59457
   D24       -1.60891  -0.00024   0.00000  -0.01115  -0.01123  -1.62014
   D25        0.48310  -0.00139   0.00000  -0.02457  -0.02469   0.45842
   D26        2.56761   0.00082   0.00000   0.00139   0.00132   2.56893
   D27        0.00158   0.00001   0.00000   0.00117   0.00126   0.00284
   D28       -3.13600  -0.00008   0.00000  -0.00258  -0.00259  -3.13858
   D29        0.00148  -0.00007   0.00000  -0.00216  -0.00214  -0.00066
   D30       -3.13608  -0.00011   0.00000  -0.00390  -0.00394  -3.14002
   D31        3.13931   0.00003   0.00000   0.00143   0.00147   3.14078
   D32        0.00175   0.00000   0.00000  -0.00031  -0.00033   0.00142
   D33        3.13447   0.00018   0.00000   0.00539   0.00541   3.13988
   D34       -0.00363   0.00009   0.00000   0.00212   0.00206  -0.00157
   D35       -3.13502  -0.00014   0.00000  -0.00436  -0.00434  -3.13936
   D36        0.00171  -0.00007   0.00000  -0.00195  -0.00193  -0.00022
   D37        0.00170  -0.00007   0.00000  -0.00212  -0.00210  -0.00040
   D38        3.13843  -0.00000   0.00000   0.00028   0.00032   3.13875
   D39       -0.00435   0.00010   0.00000   0.00354   0.00356  -0.00080
   D40        3.13663   0.00008   0.00000   0.00243   0.00243   3.13905
   D41       -3.14120   0.00002   0.00000   0.00112   0.00116  -3.14004
   D42       -0.00022  -0.00000   0.00000   0.00000   0.00003  -0.00019
   D43        0.00452  -0.00008   0.00000  -0.00313  -0.00316   0.00136
   D44       -3.13649  -0.00006   0.00000  -0.00205  -0.00203  -3.13851
   D45        0.00753  -0.00001   0.00000  -0.00042  -0.00045   0.00708
   D46       -3.13214  -0.00007   0.00000  -0.00261  -0.00258  -3.13472
   D47       -3.13474  -0.00004   0.00000  -0.00165  -0.00168  -3.13642
   D48        0.00877  -0.00009   0.00000  -0.00384  -0.00381   0.00496
   D49       -1.07402   0.00180   0.00000   0.02238   0.02240  -1.05162
   D50        1.06860  -0.00177   0.00000  -0.01988  -0.01987   1.04873
   D51        3.13863   0.00004   0.00000   0.00154   0.00156   3.14019
   D52        2.06945   0.00176   0.00000   0.02033   0.02031   2.08976
   D53       -2.07112  -0.00180   0.00000  -0.02194  -0.02196  -2.09308
   D54       -0.00109   0.00001   0.00000  -0.00051  -0.00053  -0.00162
         Item               Value     Threshold  Converged?
 Maximum Force            0.031429     0.000450     NO 
 RMS     Force            0.005849     0.000300     NO 
 Maximum Displacement     0.159359     0.001800     NO 
 RMS     Displacement     0.049177     0.001200     NO 
 Predicted change in Energy=-6.400861D-03
 GradGradGradGradGradGradGradGradGradGradGradGradGradGradGradGradGradGrad

                          Input orientation:                          
 ---------------------------------------------------------------------
 Center     Atomic      Atomic             Coordinates (Angstroms)
 Number     Number       Type             X           Y           Z
 ---------------------------------------------------------------------
      1          6           0        1.091348    0.088011    0.003356
      2          6           0        0.570251   -0.040029    1.412685
      3          6           0        0.419320   -1.289456    2.007366
      4          6           0       -0.057729   -1.430199    3.327053
      5          7           0       -0.393243   -0.384593    4.094606
      6          6           0       -0.243055    0.817526    3.521328
      7          6           0        0.225196    1.074311    2.204724
      8          6           0        0.261921    2.475091    1.921399
      9          6           0       -0.161774    3.241100    2.981050
     10         16           0       -0.625995    2.283140    4.372857
     11          6           0       -0.222978    4.711128    2.965730
     12          8           0        0.109945    5.329472    1.960090
     13          6           0       -0.704811    5.424924    4.216960
     14          6           0       -0.186674   -2.795189    3.958070
     15          1           0        0.974431    1.101435   -0.390399
     16          1           0        0.560085   -0.595320   -0.666740
     17          1           0        2.156915   -0.165051   -0.036188
     18          1           0        0.673813   -2.178713    1.438786
     19          1           0        0.584445    2.918963    0.987051
     20          1           0       -1.727859    5.124769    4.472957
     21          1           0       -0.058906    5.198045    5.073413
     22          1           0       -0.685191    6.500178    4.030797
     23          1           0        0.764811   -3.099061    4.411260
     24          1           0       -0.942945   -2.776857    4.746666
     25          1           0       -0.465702   -3.554354    3.219905
 ---------------------------------------------------------------------
                    Distance matrix (angstroms):
                    1          2          3          4          5
     1  C    0.000000
     2  C    1.508027   0.000000
     3  C    2.522914   1.391939   0.000000
     4  C    3.830444   2.447802   1.410304   0.000000
     5  N    4.377863   2.870495   2.415699   1.339775   0.000000
     6  C    3.832617   2.417280   2.677722   2.263704   1.340259
     7  C    2.563012   1.410015   2.379922   2.759028   2.466276
     8  C    3.172537   2.584509   3.768817   4.162851   3.651008
     9  C    4.514305   3.709642   4.670297   4.685251   3.799899
    10  S    5.182701   3.948510   4.410404   3.899425   2.692284
    11  C    5.645912   5.061092   6.110484   6.154165   5.222042
    12  O    5.680218   5.416925   6.626323   6.898540   6.120449
    13  C    7.033014   6.273392   7.157435   6.942864   5.819152
    14  C    5.058255   3.826595   2.537657   1.509307   2.423280
    15  H    1.093500   2.171961   3.431295   4.614539   4.918747
    16  H    1.094628   2.152315   2.766312   4.126633   4.860417
    17  H    1.095918   2.152293   2.908545   4.220975   4.859522
    18  H    2.715296   2.141349   1.085738   2.158930   3.377995
    19  H    3.039556   2.989481   4.333486   4.980281   4.639639
    20  H    7.300288   6.428197   7.199431   6.860761   5.681322
    21  H    7.289788   6.421385   7.191454   6.854443   5.677648
    22  H    7.777677   7.155763   8.123584   7.986228   6.891253
    23  H    5.449190   4.288004   3.028653   2.153411   2.968114
    24  H    5.902949   4.571151   3.401748   2.147649   2.539741
    25  H    5.102687   4.085306   2.717219   2.165631   3.289033
                    6          7          8          9         10
     6  C    0.000000
     7  C    1.420789   0.000000
     8  C    2.358451   1.429618   0.000000
     9  C    2.484395   2.333968   1.374463   0.000000
    10  S    1.737748   2.624232   2.614361   1.752232   0.000000
    11  C    3.933094   3.742516   2.515077   1.471381   2.835058
    12  O    4.787455   4.263745   2.858686   2.340403   3.955147
    13  C    4.682439   4.882810   3.860788   2.567381   3.146637
    14  C    3.639455   4.268125   5.667902   6.114898   5.114145
    15  H    4.106639   2.701250   2.781908   4.151602   5.162014
    16  H    4.492336   3.338431   4.026760   5.342806   5.923669
    17  H    4.402412   3.207685   3.793877   5.107045   5.760026
    18  H    3.762323   3.371955   4.696857   5.696592   5.496035
    19  H    3.394606   2.239314   1.083536   2.153288   3.651454
    20  H    4.654309   5.036420   4.182161   2.868209   3.049424
    21  H    4.651002   5.031429   4.177631   2.866739   3.051072
    22  H    5.722549   5.796842   4.641972   3.463743   4.231302
    23  H    4.140946   4.751528   6.125641   6.565189   5.559128
    24  H    3.861462   4.759991   6.084143   6.320082   5.083676
    25  H    4.387911   4.788786   6.210456   6.806440   5.952421
                   11         12         13         14         15
    11  C    0.000000
    12  O    1.226580   0.000000
    13  C    1.518962   2.401333   0.000000
    14  C    7.571714   8.371978   8.240495   0.000000
    15  H    5.072205   4.914105   6.537596   5.953237   0.000000
    16  H    6.478149   6.496616   7.854542   5.175513   1.768340
    17  H    6.201009   6.193948   7.584626   5.325798   1.768537
    18  H    7.113768   7.547353   8.211830   2.732631   3.767713
    19  H    2.789078   2.642443   4.286529   6.486379   2.313626
    20  H    2.169678   3.119925   1.096474   8.084931   6.865991
    21  H    2.169410   3.120668   1.096440   8.071685   6.906753
    22  H    2.132770   2.508111   1.091427   9.309009   7.172708
    23  H    8.004020   8.802117   8.651929   1.096833   6.383106
    24  H    7.730459   8.636327   8.222318   1.092779   6.716168
    25  H    8.272950   8.991155   9.037628   1.095023   6.065035
                   16         17         18         19         20
    16  H    0.000000
    17  H    1.769913   0.000000
    18  H    2.636912   2.903442   0.000000
    19  H    3.884045   3.609823   5.118432   0.000000
    20  H    8.023130   7.962792   8.265294   4.729046   0.000000
    21  H    8.178972   7.731796   8.256146   4.722973   1.775197
    22  H    8.600213   8.309224   9.159070   4.868415   1.781688
    23  H    5.665396   5.506919   3.113024   6.926352   8.593521
    24  H    6.026870   6.269478   3.730114   6.993568   7.945232
    25  H    4.991405   5.382159   2.522552   6.927646   8.859479
                   21         22         23         24         25
    21  H    0.000000
    22  H    1.781806   0.000000
    23  H    8.364145   9.715588   0.000000
    24  H    8.030402   9.308183   1.769956   0.000000
    25  H    8.955750  10.089565   1.772225   1.778556   0.000000
 Stoichiometry    C11H11NOS
 Framework group  C1[X(C11H11NOS)]
 Deg. of freedom    69
 Full point group                 C1      NOp   1
 Largest Abelian subgroup         C1      NOp   1
 Largest concise Abelian subgroup C1      NOp   1
                         Standard orientation:                         
 ---------------------------------------------------------------------
 Center     Atomic      Atomic             Coordinates (Angstroms)
 Number     Number       Type             X           Y           Z
 ---------------------------------------------------------------------
      1          6           0        1.710063    2.936289    0.006045
      2          6           0        1.674346    1.428746   -0.007537
      3          6           0        2.851933    0.686601   -0.005411
      4          6           0        2.840077   -0.723649   -0.008887
      5          7           0        1.708872   -1.441538   -0.011769
      6          6           0        0.576373   -0.724784   -0.009528
      7          6           0        0.472018    0.692167   -0.007737
      8          6           0       -0.891768    1.120972   -0.003457
      9          6           0       -1.777472    0.069937   -0.002585
     10         16           0       -0.982941   -1.491794   -0.008248
     11          6           0       -3.240898    0.222563    0.004657
     12          8           0       -3.741876    1.342168    0.002894
     13          6           0       -4.095858   -1.032905    0.013944
     14          6           0        4.131104   -1.504914    0.020793
     15          1           0        0.727848    3.375088   -0.190045
     16          1           0        2.402613    3.311496   -0.754089
     17          1           0        2.051509    3.303217    0.980630
     18          1           0        3.804282    1.207997   -0.003145
     19          1           0       -1.226433    2.151520    0.001082
     20          1           0       -3.902988   -1.647923   -0.873079
     21          1           0       -3.891149   -1.642420    0.902070
     22          1           0       -5.146090   -0.735936    0.019888
     23          1           0        4.471612   -1.642876    1.054266
     24          1           0        3.983929   -2.494544   -0.418681
     25          1           0        4.925315   -0.989625   -0.529463
 ---------------------------------------------------------------------
 Rotational constants (GHZ):           1.2734961           0.3904431           0.3005184
 Standard basis: 6-31G(d) (6D, 7F)
 There are   236 symmetry adapted cartesian basis functions of A   symmetry.
 There are   236 symmetry adapted basis functions of A   symmetry.
   236 basis functions,   460 primitive gaussians,   236 cartesian basis functions
    54 alpha electrons       54 beta electrons
       nuclear repulsion energy       938.6928942360 Hartrees.
 NAtoms=   25 NActive=   25 NUniq=   25 SFac= 1.00D+00 NAtFMM=   60 NAOKFM=F Big=F
 Integral buffers will be    131072 words long.
 Raffenetti 2 integral format.
 Two-electron integral symmetry is turned on.
 Nuclear repulsion after empirical dispersion term =      938.6397423095 Hartrees.
 One-electron integrals computed using PRISM.
 NBasis=   236 RedAO= T EigKep=  5.00D-04  NBF=   236
 NBsUse=   236 1.00D-06 EigRej= -1.00D+00 NBFU=   236
 Initial guess from the checkpoint file:  "JID_4862.chk"
 B after Tr=    -0.000000   -0.000000    0.000000
         Rot=    0.999984    0.000186   -0.000032   -0.005669 Ang=   0.65 deg.
 ExpMin= 1.17D-01 ExpMax= 2.19D+04 ExpMxC= 3.30D+03 IAcc=2 IRadAn=         4 AccDes= 0.00D+00
 Harris functional with IExCor=  402 and IRadAn=       4 diagonalized for initial guess.
 HarFok:  IExCor=  402 AccDes= 0.00D+00 IRadAn=         4 IDoV= 1 UseB2=F ITyADJ=14
 ICtDFT=  3500011 ScaDFX=  1.000000  1.000000  1.000000  1.000000
 FoFCou: FMM=F IPFlag=           0 FMFlag=      100000 FMFlg1=           0
         NFxFlg=           0 DoJE=T BraDBF=F KetDBF=T FulRan=T
         wScrn=  0.000000 ICntrl=       500 IOpCl=  0 I1Cent=   200000004 NGrid=           0
         NMat0=    1 NMatS0=      1 NMatT0=    0 NMatD0=    1 NMtDS0=    0 NMtDT0=    0
 Petite list used in FoFCou.
 Keep R1 ints in memory in canonical form, NReq=397720080.
 Requested convergence on RMS density matrix=1.00D-08 within  32 cycles.
 Requested convergence on MAX density matrix=1.00D-06.
 Requested convergence on             energy=1.00D-06.
 No special actions if energy rises.
 Integral accuracy reduced to 1.0D-05 until final iterations.
 Initial convergence to 1.0D-05 achieved.  Increase integral accuracy.
 SCF Done:  E(RB3LYP) =  -954.031778841     A.U. after   12 cycles
            NFock= 12  Conv=0.91D-08     -V/T= 2.0069
 QCSCF skips out because SCF is already converged.
 Calling FoFJK, ICntrl=      2127 FMM=F ISym2X=0 I1Cent= 0 IOpClX= 0 NMat=1 NMatS=1 NMatT=0.
 ***** Axes restored to original set *****
 -------------------------------------------------------------------
 Center     Atomic                   Forces (Hartrees/Bohr)
 Number     Number              X              Y              Z
 -------------------------------------------------------------------
      1        6          -0.001317361    0.002157302    0.001083138
      2        6           0.000213204   -0.004385101    0.001015526
      3        6          -0.000051022    0.002301611   -0.001813552
      4        6          -0.000363852   -0.002298695    0.002520715
      5        7           0.001907302    0.006359080   -0.006960945
      6        6           0.000195843   -0.013418164    0.001850844
      7        6           0.000387183    0.002603172   -0.000716684
      8        6          -0.001674437   -0.000820066    0.004237684
      9        6           0.002925140   -0.000897230   -0.007819498
     10       16          -0.002811721    0.003976506    0.006968432
     11        6           0.000717321    0.007242124   -0.003280930
     12        8          -0.001353393   -0.002386789    0.004277330
     13        6           0.000754142    0.002483861   -0.002348907
     14        6          -0.001409685    0.000802959   -0.001344805
     15        1           0.000016776   -0.000519530    0.000512804
     16        1           0.000644630   -0.000720963   -0.000242531
     17        1           0.000330638   -0.000217607   -0.000457893
     18        1          -0.000355337   -0.001161578    0.000307594
     19        1          -0.000410380    0.000832633    0.001131252
     20        1           0.000491294   -0.001165075    0.000562509
     21        1          -0.000653939   -0.001198792    0.000175263
     22        1          -0.000077011    0.000125328    0.000177355
     23        1           0.000334928   -0.000536799    0.000131479
     24        1           0.000591736    0.000856746    0.000216709
     25        1           0.000968000   -0.000014931   -0.000182890
 -------------------------------------------------------------------
 Cartesian Forces:  Max     0.013418164 RMS     0.002861615

 GradGradGradGradGradGradGradGradGradGradGradGradGradGradGradGradGradGrad
 Berny optimization.
 Using GEDIIS/GDIIS optimizer.
 FormGI is forming the generalized inverse of G from B-inverse, IUseBI=4.
 Internal  Forces:  Max     0.008071579 RMS     0.001529338
 Search for a local minimum.
 Step number   2 out of a maximum of  134
 All quantities printed in internal units (Hartrees-Bohrs-Radians)
 Mixed Optimization -- RFO/linear search
 Update second derivatives using D2CorX and points    1    2
 DE= -6.82D-03 DEPred=-6.40D-03 R= 1.07D+00
 TightC=F SS=  1.41D+00  RLast= 2.11D-01 DXNew= 5.0454D-01 6.3288D-01
 Trust test= 1.07D+00 RLast= 2.11D-01 DXMaxT set to 5.05D-01
 ITU=  1  0
 Use linear search instead of GDIIS.
     Eigenvalues ---    0.00616   0.00725   0.00741   0.00893   0.01322
     Eigenvalues ---    0.01446   0.01588   0.01716   0.01818   0.01873
     Eigenvalues ---    0.01967   0.02022   0.02097   0.02115   0.02141
     Eigenvalues ---    0.02313   0.07023   0.07092   0.07189   0.07295
     Eigenvalues ---    0.07358   0.07438   0.15685   0.16000   0.16000
     Eigenvalues ---    0.16000   0.16000   0.16000   0.16000   0.16000
     Eigenvalues ---    0.16000   0.16000   0.16223   0.23214   0.23575
     Eigenvalues ---    0.24319   0.24996   0.24998   0.24999   0.25000
     Eigenvalues ---    0.25000   0.25000   0.26490   0.29857   0.31346
     Eigenvalues ---    0.32089   0.32480   0.34070   0.34242   0.34256
     Eigenvalues ---    0.34276   0.34292   0.34296   0.34338   0.34410
     Eigenvalues ---    0.34444   0.34477   0.35148   0.35468   0.37069
     Eigenvalues ---    0.39148   0.40765   0.42650   0.44717   0.46124
     Eigenvalues ---    0.49091   0.53306   0.55563   0.89483
 RFO step:  Lambda=-9.36006195D-04 EMin= 6.15662250D-03
 Quartic linear search produced a step of  0.15318.
 Iteration  1 RMS(Cart)=  0.01794315 RMS(Int)=  0.00013387
 Iteration  2 RMS(Cart)=  0.00019160 RMS(Int)=  0.00002795
 Iteration  3 RMS(Cart)=  0.00000004 RMS(Int)=  0.00002795
 Variable       Old X    -DE/DX   Delta X   Delta X   Delta X     New X
                                 (Linear)    (Quad)   (Total)
    R1        2.84976  -0.00089   0.00145  -0.00395  -0.00250   2.84726
    R2        2.06642  -0.00067  -0.00003  -0.00222  -0.00225   2.06417
    R3        2.06855   0.00029  -0.00011   0.00102   0.00091   2.06945
    R4        2.07099   0.00039   0.00040   0.00109   0.00149   2.07248
    R5        2.63038  -0.00185  -0.00357  -0.00234  -0.00592   2.62446
    R6        2.66454   0.00200  -0.00183   0.00657   0.00472   2.66926
    R7        2.66509  -0.00054   0.00541  -0.00391   0.00150   2.66659
    R8        2.05175   0.00071  -0.00047   0.00256   0.00209   2.05384
    R9        2.53181  -0.00016  -0.00213   0.00059  -0.00152   2.53029
   R10        2.85218  -0.00154   0.00215  -0.00661  -0.00446   2.84772
   R11        2.53272  -0.00704  -0.00191  -0.01396  -0.01586   2.51687
   R12        2.68490  -0.00028   0.00875  -0.00535   0.00341   2.68831
   R13        3.28387   0.00807   0.01035   0.02168   0.03206   3.31593
   R14        2.70159   0.00051  -0.00166   0.00153  -0.00016   2.70142
   R15        2.59736  -0.00335  -0.00270  -0.00722  -0.00996   2.58740
   R16        2.04759  -0.00076  -0.00027  -0.00231  -0.00258   2.04501
   R17        3.31124   0.00540   0.01309   0.01104   0.02414   3.33538
   R18        2.78051   0.00511   0.00388   0.01374   0.01762   2.79813
   R19        2.31790  -0.00508  -0.00176  -0.00557  -0.00733   2.31057
   R20        2.87042  -0.00123   0.00220  -0.00568  -0.00348   2.86694
   R21        2.07204  -0.00001   0.00095  -0.00053   0.00043   2.07246
   R22        2.07197  -0.00000   0.00093  -0.00049   0.00044   2.07241
   R23        2.06250   0.00009  -0.00094   0.00080  -0.00014   2.06236
   R24        2.07271   0.00049   0.00078   0.00125   0.00202   2.07474
   R25        2.06505  -0.00024  -0.00061  -0.00048  -0.00109   2.06396
   R26        2.06929  -0.00011   0.00010  -0.00043  -0.00033   2.06896
    A1        1.95871  -0.00044   0.00133  -0.00284  -0.00152   1.95719
    A2        1.92985   0.00042   0.00080   0.00270   0.00349   1.93334
    A3        1.92847   0.00046   0.00158   0.00135   0.00293   1.93140
    A4        1.88202   0.00031   0.00078   0.00389   0.00465   1.88667
    A5        1.88070  -0.00003  -0.00148   0.00042  -0.00107   1.87964
    A6        1.88143  -0.00075  -0.00324  -0.00567  -0.00891   1.87252
    A7        2.10942   0.00096   0.00532   0.00083   0.00617   2.11558
    A8        2.14411  -0.00191  -0.00379  -0.00761  -0.01139   2.13272
    A9        2.02959   0.00095  -0.00150   0.00684   0.00528   2.03487
   A10        2.12473  -0.00129   0.00384  -0.00694  -0.00312   2.12161
   A11        2.07834   0.00166  -0.00211   0.01088   0.00878   2.08711
   A12        2.08012  -0.00038  -0.00173  -0.00394  -0.00566   2.07446
   A13        2.14470  -0.00111  -0.00284  -0.00344  -0.00629   2.13840
   A14        2.10641  -0.00001   0.00263  -0.00144   0.00116   2.10757
   A15        2.03186   0.00112   0.00031   0.00500   0.00528   2.03713
   A16        2.01184   0.00316   0.00149   0.01181   0.01334   2.02518
   A17        2.20857  -0.00081  -0.00093  -0.00504  -0.00599   2.20258
   A18        2.12020   0.00261   0.00321   0.01030   0.01348   2.13368
   A19        1.95442  -0.00180  -0.00228  -0.00526  -0.00750   1.94692
   A20        2.04693  -0.00090  -0.00002  -0.00321  -0.00325   2.04369
   A21        2.28730   0.00042  -0.00427   0.00475   0.00051   2.28781
   A22        1.94895   0.00048   0.00429  -0.00154   0.00274   1.95169
   A23        1.96640   0.00332  -0.00232   0.01517   0.01278   1.97918
   A24        2.18944  -0.00038   0.00306   0.00061   0.00371   2.19315
   A25        2.12734  -0.00294  -0.00074  -0.01578  -0.01648   2.11086
   A26        1.97073  -0.00148   0.00527  -0.01115  -0.00590   1.96482
   A27        2.16711   0.00043  -0.00561   0.00568   0.00008   2.16719
   A28        2.14535   0.00106   0.00034   0.00547   0.00582   2.15117
   A29        1.58428  -0.00052  -0.00496   0.00277  -0.00212   1.58217
   A30        2.09544   0.00031  -0.00439   0.00370  -0.00069   2.09475
   A31        2.06475  -0.00016  -0.00235   0.00050  -0.00184   2.06290
   A32        2.12300  -0.00015   0.00674  -0.00420   0.00253   2.12553
   A33        1.93869  -0.00064   0.00186  -0.00807  -0.00628   1.93241
   A34        1.93835  -0.00059   0.00186  -0.00763  -0.00585   1.93250
   A35        1.89310   0.00095  -0.00216   0.01274   0.01057   1.90367
   A36        1.88665  -0.00068  -0.00711  -0.01020  -0.01745   1.86920
   A37        1.90317   0.00050   0.00278   0.00680   0.00958   1.91274
   A38        1.90340   0.00049   0.00286   0.00682   0.00967   1.91306
   A39        1.92750   0.00046   0.00170   0.00051   0.00221   1.92971
   A40        1.92374  -0.00091  -0.00069  -0.00519  -0.00588   1.91786
   A41        1.94651   0.00002   0.00123   0.00043   0.00166   1.94817
   A42        1.88266  -0.00003  -0.00218  -0.00087  -0.00305   1.87961
   A43        1.88337  -0.00052  -0.00307  -0.00399  -0.00706   1.87630
   A44        1.89837   0.00100   0.00289   0.00924   0.01213   1.91050
    D1        2.95004  -0.00011  -0.00146  -0.02906  -0.03051   2.91953
    D2       -0.20436  -0.00002   0.00061  -0.02317  -0.02256  -0.22691
[...]
   180    C    9  S      Ryd( 3S)     0.00012       0.80241
   181    C    9  S      Ryd( 5S)     0.00001      23.49944
   182    C    9  px     Val( 2p)     0.54475       0.06947
   183    C    9  px     Ryd( 4p)     0.00248       1.15031
   184    C    9  px     Ryd( 3p)     0.00017       0.84332
   185    C    9  px     Ryd( 5p)     0.00010       3.47068
   186    C    9  py     Val( 2p)     0.50904       0.02870
   187    C    9  py     Ryd( 4p)     0.00363       1.09393
   188    C    9  py     Ryd( 3p)     0.00020       0.78139
   189    C    9  py     Ryd( 5p)     0.00013       3.20757
   190    C    9  pz     Val( 2p)     0.53836       0.03119
   191    C    9  pz     Ryd( 4p)     0.00073       0.69665
   192    C    9  pz     Ryd( 3p)     0.00028       0.52128
   193    C    9  pz     Ryd( 5p)     0.00001       2.88924
   194    C    9  dxy    Ryd( 3d)     0.00064       2.57279
   195    C    9  dxz    Ryd( 3d)     0.00033       1.78403
   196    C    9  dyz    Ryd( 3d)     0.00035       1.69457
   197    C    9  dx2y2  Ryd( 3d)     0.00061       2.38466
   198    C    9  dz2    Ryd( 3d)     0.00051       2.12327
 
   199    S   10  S      Cor( 1S)     1.00000     -87.53645
   200    S   10  S      Cor( 2S)     0.99960      -8.70554
   201    S   10  S      Val( 3S)     0.81573      -0.58721
   202    S   10  S      Ryd( 5S)     0.00244       1.25155
   203    S   10  S      Ryd( 4S)     0.00014       0.53709
   204    S   10  S      Ryd( 6S)     0.00000      14.00200
   205    S   10  S      Ryd( 7S)     0.00000     182.84143
   206    S   10  px     Cor( 2p)     0.99993      -5.76443
   207    S   10  px     Val( 3p)     0.48254      -0.03023
   208    S   10  px     Ryd( 5p)     0.00315       0.68147
   209    S   10  px     Ryd( 4p)     0.00030       0.47928
   210    S   10  px     Ryd( 6p)     0.00004       2.61487
   211    S   10  px     Ryd( 7p)     0.00000      16.66828
   212    S   10  py     Cor( 2p)     0.99993      -5.76207
   213    S   10  py     Val( 3p)     0.66098      -0.05703
   214    S   10  py     Ryd( 5p)     0.00134       0.51286
   215    S   10  py     Ryd( 4p)     0.00014       0.31030
   216    S   10  py     Ryd( 6p)     0.00007       2.74875
   217    S   10  py     Ryd( 7p)     0.00000      16.56902
   218    S   10  pz     Cor( 2p)     0.99998      -5.75927
   219    S   10  pz     Val( 3p)     0.84356      -0.10024
   220    S   10  pz     Ryd( 5p)     0.00310       0.45932
   221    S   10  pz     Ryd( 4p)     0.00007       0.33454
   222    S   10  pz     Ryd( 6p)     0.00003       2.41162
   223    S   10  pz     Ryd( 7p)     0.00000      16.76852
   224    S   10  dxy    Ryd( 3d)     0.00310       1.44247
   225    S   10  dxz    Ryd( 3d)     0.00179       1.01281
   226    S   10  dyz    Ryd( 3d)     0.00146       1.01870
   227    S   10  dx2y2  Ryd( 3d)     0.00213       1.39000
   228    S   10  dz2    Ryd( 3d)     0.00132       1.36879
 
   229    C   11  S      Cor( 1S)     0.99960      -9.95385
   230    C   11  S      Val( 2S)     0.40625       0.03211
   231    C   11  S      Ryd( 3S)     0.00236       0.97859
   232    C   11  S      Ryd( 4S)     0.00015       1.73611
   233    C   11  S      Ryd( 5S)     0.00001      22.22914
   234    C   11  px     Val( 2p)     0.49377       0.11580
   235    C   11  px     Ryd( 4p)     0.00350       1.19473
   236    C   11  px     Ryd( 3p)     0.00045       0.52270
   237    C   11  px     Ryd( 5p)     0.00010       2.86768
   238    C   11  py     Val( 2p)     0.42621       0.14213
   239    C   11  py     Ryd( 4p)     0.00807       1.18019
   240    C   11  py     Ryd( 3p)     0.00027       0.51689
   241    C   11  py     Ryd( 5p)     0.00010       3.01745
   242    C   11  pz     Val( 2p)     0.36855       0.06856
   243    C   11  pz     Ryd( 4p)     0.00109       0.77586
   244    C   11  pz     Ryd( 3p)     0.00042       0.42769
   245    C   11  pz     Ryd( 5p)     0.00003       2.77347
   246    C   11  dxy    Ryd( 3d)     0.00129       2.63418
   247    C   11  dxz    Ryd( 3d)     0.00040       1.77038
   248    C   11  dyz    Ryd( 3d)     0.00128       1.80985
   249    C   11  dx2y2  Ryd( 3d)     0.00139       2.67065
   250    C   11  dz2    Ryd( 3d)     0.00026       2.16888
 
   251    O   12  S      Cor( 1S)     0.99988     -18.66107
   252    O   12  S      Val( 2S)     0.84255      -0.70047
   253    O   12  S      Ryd( 3S)     0.00099       1.37356
   254    O   12  S      Ryd( 4S)     0.00004       1.57706
   255    O   12  S      Ryd( 5S)     0.00000      49.67999
   256    O   12  px     Val( 2p)     0.91396      -0.09790
   257    O   12  px     Ryd( 3p)     0.00198       0.82466
   258    O   12  px     Ryd( 4p)     0.00002       1.13867
   259    O   12  px     Ryd( 5p)     0.00001       5.28909
   260    O   12  py     Val( 2p)     0.81703      -0.12528
   261    O   12  py     Ryd( 3p)     0.00119       0.72912
   262    O   12  py     Ryd( 4p)     0.00005       1.08112
   263    O   12  py     Ryd( 5p)     0.00003       5.48119
   264    O   12  pz     Val( 2p)     0.67481      -0.06207
   265    O   12  pz     Ryd( 3p)     0.00017       0.66246
   266    O   12  pz     Ryd( 4p)     0.00004       1.05530
   267    O   12  pz     Ryd( 5p)     0.00001       5.18467
   268    O   12  dxy    Ryd( 3d)     0.00071       3.58958
   269    O   12  dxz    Ryd( 3d)     0.00012       3.06935
   270    O   12  dyz    Ryd( 3d)     0.00067       3.24015
   271    O   12  dx2y2  Ryd( 3d)     0.00071       3.53465
   272    O   12  dz2    Ryd( 3d)     0.00022       3.27755
 
   273    C   13  S      Cor( 1S)     0.99964      -9.89651
   274    C   13  S      Val( 2S)     0.55502      -0.12345
   275    C   13  S      Ryd( 3S)     0.00043       0.66282
   276    C   13  S      Ryd( 4S)     0.00013       1.07641
   277    C   13  S      Ryd( 5S)     0.00000      23.52053
   278    C   13  px     Val( 2p)     0.59410       0.03276
   279    C   13  px     Ryd( 4p)     0.00105       0.72532
   280    C   13  px     Ryd( 3p)     0.00010       0.52445
   281    C   13  px     Ryd( 5p)     0.00004       3.20192
   282    C   13  py     Val( 2p)     0.57779       0.03472
   283    C   13  py     Ryd( 4p)     0.00074       0.59603
   284    C   13  py     Ryd( 3p)     0.00005       0.49990
   285    C   13  py     Ryd( 5p)     0.00003       3.16926
   286    C   13  pz     Val( 2p)     0.60050       0.03221
   287    C   13  pz     Ryd( 4p)     0.00003       0.58334
   288    C   13  pz     Ryd( 3p)     0.00006       0.47470
   289    C   13  pz     Ryd( 5p)     0.00002       3.16223
   290    C   13  dxy    Ryd( 3d)     0.00037       2.31482
   291    C   13  dxz    Ryd( 3d)     0.00011       1.93239
   292    C   13  dyz    Ryd( 3d)     0.00045       2.30295
   293    C   13  dx2y2  Ryd( 3d)     0.00032       2.28140
   294    C   13  dz2    Ryd( 3d)     0.00030       2.25896
 
   295    C   14  S      Cor( 1S)     0.99965      -9.90982
   296    C   14  S      Val( 2S)     0.54153      -0.12551
   297    C   14  S      Ryd( 3S)     0.00023       0.87332
   298    C   14  S      Ryd( 4S)     0.00010       0.87753
   299    C   14  S      Ryd( 5S)     0.00000      23.43888
   300    C   14  px     Val( 2p)     0.56420       0.02687
   301    C   14  px     Ryd( 4p)     0.00073       0.55732
   302    C   14  px     Ryd( 3p)     0.00008       0.42604
   303    C   14  px     Ryd( 5p)     0.00004       3.20444
   304    C   14  py     Val( 2p)     0.59396       0.02222
   305    C   14  py     Ryd( 4p)     0.00141       0.62011
   306    C   14  py     Ryd( 3p)     0.00009       0.44865
   307    C   14  py     Ryd( 5p)     0.00003       3.22116
   308    C   14  pz     Val( 2p)     0.59551       0.02263
   309    C   14  pz     Ryd( 4p)     0.00019       0.56865
   310    C   14  pz     Ryd( 3p)     0.00005       0.42272
   311    C   14  pz     Ryd( 5p)     0.00002       3.18488
   312    C   14  dxy    Ryd( 3d)     0.00028       2.23877
   313    C   14  dxz    Ryd( 3d)     0.00050       2.28022
   314    C   14  dyz    Ryd( 3d)     0.00014       1.93349
   315    C   14  dx2y2  Ryd( 3d)     0.00034       2.32653
   316    C   14  dz2    Ryd( 3d)     0.00030       2.24162
 
   317    H   15  S      Val( 1S)     0.39354       0.14504
   318    H   15  S      Ryd( 2S)     0.00060       0.57633
   319    H   15  S      Ryd( 3S)     0.00009       0.74105
   320    H   15  S      Ryd( 4S)     0.00006       2.07600
   321    H   15  px     Ryd( 2p)     0.00009       2.10420
   322    H   15  py     Ryd( 2p)     0.00009       1.96924
   323    H   15  pz     Ryd( 2p)     0.00013       2.49341
 
   324    H   16  S      Val( 1S)     0.40489       0.13528
   325    H   16  S      Ryd( 3S)     0.00054       0.70002
   326    H   16  S      Ryd( 4S)     0.00006       2.33379
   327    H   16  S      Ryd( 2S)     0.00002       0.27789
   328    H   16  px     Ryd( 2p)     0.00013       2.68036
   329    H   16  py     Ryd( 2p)     0.00008       2.01097
   330    H   16  pz     Ryd( 2p)     0.00006       1.83721
 
   331    H   17  S      Val( 1S)     0.39354       0.14504
   332    H   17  S      Ryd( 2S)     0.00060       0.57635
   333    H   17  S      Ryd( 3S)     0.00009       0.74142
   334    H   17  S      Ryd( 4S)     0.00006       2.07561
   335    H   17  px     Ryd( 2p)     0.00009       2.10429
   336    H   17  py     Ryd( 2p)     0.00009       1.96926
   337    H   17  pz     Ryd( 2p)     0.00013       2.49327
 
   338    H   18  S      Val( 1S)     0.40758       0.15730
   339    H   18  S      Ryd( 3S)     0.00055       0.98320
   340    H   18  S      Ryd( 4S)     0.00010       1.73012
   341    H   18  S      Ryd( 2S)     0.00004       0.62312
   342    H   18  px     Ryd( 2p)     0.00018       2.69779
   343    H   18  py     Ryd( 2p)     0.00011       2.31926
   344    H   18  pz     Ryd( 2p)     0.00012       1.72977
 
   345    H   19  S      Val( 1S)     0.38990       0.20766
   346    H   19  S      Ryd( 3S)     0.00062       1.09801
   347    H   19  S      Ryd( 4S)     0.00012       1.95842
   348    H   19  S      Ryd( 2S)     0.00007       0.38132
   349    H   19  px     Ryd( 2p)     0.00013       2.26048
   350    H   19  py     Ryd( 2p)     0.00020       2.83478
   351    H   19  pz     Ryd( 2p)     0.00011       1.76084
 
   352    H   20  S      Val( 1S)     0.39565       0.15260
   353    H   20  S      Ryd( 3S)     0.00065       0.50432
   354    H   20  S      Ryd( 2S)     0.00022       0.42022
   355    H   20  S      Ryd( 4S)     0.00006       2.49345
   356    H   20  px     Ryd( 2p)     0.00008       1.89690
   357    H   20  py     Ryd( 2p)     0.00012       2.16963
   358    H   20  pz     Ryd( 2p)     0.00013       2.49143
 
   359    H   21  S      Val( 1S)     0.39567       0.15261
   360    H   21  S      Ryd( 3S)     0.00065       0.50456
   361    H   21  S      Ryd( 2S)     0.00022       0.42022
   362    H   21  S      Ryd( 4S)     0.00006       2.49328
   363    H   21  px     Ryd( 2p)     0.00008       1.89698
   364    H   21  py     Ryd( 2p)     0.00012       2.17063
   365    H   21  pz     Ryd( 2p)     0.00013       2.49009
 
   366    H   22  S      Val( 1S)     0.39750       0.16291
   367    H   22  S      Ryd( 3S)     0.00114       0.71813
   368    H   22  S      Ryd( 2S)     0.00015       0.35435
   369    H   22  S      Ryd( 4S)     0.00007       2.23596
   370    H   22  px     Ryd( 2p)     0.00013       2.75611
   371    H   22  py     Ryd( 2p)     0.00011       1.94712
   372    H   22  pz     Ryd( 2p)     0.00005       1.85605
 
   373    H   23  S      Val( 1S)     0.40173       0.13527
   374    H   23  S      Ryd( 3S)     0.00052       0.53736
   375    H   23  S      Ryd( 2S)     0.00011       0.33865
   376    H   23  S      Ryd( 4S)     0.00006       2.44742
   377    H   23  px     Ryd( 2p)     0.00011       2.15517
   378    H   23  py     Ryd( 2p)     0.00008       1.89006
   379    H   23  pz     Ryd( 2p)     0.00013       2.46848
 
   380    H   24  S      Val( 1S)     0.39369       0.15493
   381    H   24  S      Ryd( 3S)     0.00084       0.67109
   382    H   24  S      Ryd( 2S)     0.00013       0.56463
   383    H   24  S      Ryd( 4S)     0.00007       2.06019
   384    H   24  px     Ryd( 2p)     0.00008       1.89754
   385    H   24  py     Ryd( 2p)     0.00013       2.79347
   386    H   24  pz     Ryd( 2p)     0.00006       1.84387
 
   387    H   25  S      Val( 1S)     0.40173       0.13527
   388    H   25  S      Ryd( 3S)     0.00052       0.53739
   389    H   25  S      Ryd( 2S)     0.00011       0.33869
   390    H   25  S      Ryd( 4S)     0.00006       2.44731
   391    H   25  px     Ryd( 2p)     0.00011       2.15539
   392    H   25  py     Ryd( 2p)     0.00008       1.89011
   393    H   25  pz     Ryd( 2p)     0.00013       2.46818

 WARNING:  Population inversion found on atom  C    1
           Population inversion found on atom  C    2
           Population inversion found on atom  C    3
           Population inversion found on atom  C    4
           Population inversion found on atom  N    5
           Population inversion found on atom  C    6
           Population inversion found on atom  C    7
           Population inversion found on atom  C    8
           Population inversion found on atom  C    9
           Population inversion found on atom  S   10
           Population inversion found on atom  C   11
           Population inversion found on atom  C   13
           Population inversion found on atom  C   14
           Population inversion found on atom  H   16
           Population inversion found on atom  H   18
           Population inversion found on atom  H   19
           Population inversion found on atom  H   20
           Population inversion found on atom  H   21
           Population inversion found on atom  H   22
           Population inversion found on atom  H   23
           Population inversion found on atom  H   24
           Population inversion found on atom  H   25


 Summary of Natural Population Analysis:                  
                                                          
                                       Natural Population 
                Natural  -----------------------------------------------
    Atom  No    Charge         Core      Valence    Rydberg      Total
 -----------------------------------------------------------------------
      C    1   -0.29596      0.99965     2.29173    0.00458     3.29596
      C    2    0.05934      0.99948     1.93373    0.00744     2.94066
      C    3   -0.15808      0.99948     2.15082    0.00778     3.15808
      C    4    0.15024      0.99957     1.83683    0.01336     2.84976
      N    5   -0.25843      0.99963     2.74570    0.01310     3.75843
      C    6    0.04421      0.99944     1.93942    0.01693     2.95579
      C    7   -0.07601      0.99943     2.06639    0.01020     3.07601
      C    8   -0.06303      0.99946     2.05397    0.00960     3.06303
      C    9   -0.08969      0.99942     2.07881    0.01145     3.08969
      S   10    0.17712      4.99944     2.80282    0.02062     7.82288
      C   11    0.28445      0.99960     1.69478    0.02117     2.71555
      O   12   -0.25521      0.99988     3.24834    0.00698     4.25521
      C   13   -0.33130      0.99964     2.32741    0.00425     3.33130
      C   14   -0.29936      0.99965     2.29519    0.00452     3.29936
      H   15    0.10539      0.00000     0.39354    0.00106     0.39461
      H   16    0.09421      0.00000     0.40489    0.00090     0.40579
      H   17    0.10539      0.00000     0.39354    0.00106     0.39461
      H   18    0.09132      0.00000     0.40758    0.00109     0.40868
      H   19    0.10885      0.00000     0.38990    0.00125     0.39115
      H   20    0.10309      0.00000     0.39565    0.00126     0.39691
      H   21    0.10307      0.00000     0.39567    0.00126     0.39693
      H   22    0.10085      0.00000     0.39750    0.00165     0.39915
      H   23    0.09726      0.00000     0.40173    0.00101     0.40274
      H   24    0.10501      0.00000     0.39369    0.00130     0.39499
      H   25    0.09726      0.00000     0.40173    0.00101     0.40274
 =======================================================================
   * Total *   -0.00000     17.99377    35.84138    0.16485    54.00000

                                 Natural Population      
 --------------------------------------------------------
   Core                      17.99377 ( 99.9654% of  18)
   Valence                   35.84138 ( 99.5594% of  36)
   Natural Minimal Basis     53.83515 ( 99.6947% of  54)
   Natural Rydberg Basis      0.16485 (  0.3053% of  54)
 --------------------------------------------------------

    Atom  No          Natural Electron Configuration
 ----------------------------------------------------------------------------
      C    1      [core]2S( 0.54)2p( 1.75)
      C    2      [core]2S( 0.43)2p( 1.50)
      C    3      [core]2S( 0.47)2p( 1.68)4p( 0.01)
      C    4      [core]2S( 0.42)2p( 1.42)4p( 0.01)
      N    5      [core]2S( 0.67)2p( 2.07)3p( 0.01)
      C    6      [core]2S( 0.45)2p( 1.49)4p( 0.01)
      C    7      [core]2S( 0.43)2p( 1.63)4p( 0.01)
      C    8      [core]2S( 0.46)2p( 1.59)4p( 0.01)
      C    9      [core]2S( 0.49)2p( 1.59)4p( 0.01)
      S   10      [core]3S( 0.82)3p( 1.99)3d( 0.01)5p( 0.01)
      C   11      [core]2S( 0.41)2p( 1.29)4p( 0.01)
      O   12      [core]2S( 0.84)2p( 2.41)
      C   13      [core]2S( 0.56)2p( 1.77)
      C   14      [core]2S( 0.54)2p( 1.75)
      H   15            1S( 0.39)
      H   16            1S( 0.40)
      H   17            1S( 0.39)
      H   18            1S( 0.41)
      H   19            1S( 0.39)
      H   20            1S( 0.40)
      H   21            1S( 0.40)
      H   22            1S( 0.40)
      H   23            1S( 0.40)
      H   24            1S( 0.39)
      H   25            1S( 0.40)


 NBO analysis skipped by request.
 1\1\GINC-NODE316\SP\UB3LYP\6-311++G(d,p)\C11H11N1O1S1(1-,2)\VSC10255\1
 0-Dec-2020\0\\# B3LYP/6-311++G(d,p) empiricaldispersion=gd3bj scf=xqc 
 pop=npa geom=check\\CID_82396229_JID_4862_Energie_anion\\-1,2\C,0,1.10
 88472281,0.1211643845,0.034952502\C,0,0.5858272479,-0.0565257847,1.433
 7408753\C,0,0.4183353644,-1.3060310937,2.0107058572\C,0,-0.0751904062,
 -1.4500807785,3.328049195\N,0,-0.4069275044,-0.4020752645,4.0895938549
 \C,0,-0.245911193,0.79791003,3.5350511778\C,0,0.2383186882,1.060237095
 2,2.2295066661\C,0,0.2887356207,2.4580855845,1.9452785041\C,0,-0.13810
 17597,3.2389792276,2.9865347433\S,0,-0.6309170769,2.2869210136,4.38939
 06545\C,0,-0.1868489739,4.7192908063,2.9547256273\O,0,0.1688869417,5.3
 203965527,1.9516532341\C,0,-0.6851636295,5.4424432182,4.189956877\C,0,
 -0.2482958697,-2.8183388281,3.9328700896\H,0,0.3813530666,0.6504306726
 ,-0.5920622417\H,0,1.3259396227,-0.8427946063,-0.4330642323\H,0,2.0286
 626363,0.7181980115,0.0324821883\H,0,0.6697886907,-2.1984341498,1.4439
 890393\H,0,0.6237461118,2.8985874134,1.014007184\H,0,-1.7093295922,5.1
 333818459,4.4319320535\H,0,-0.060432254,5.2001071452,5.0582609722\H,0,
 -0.6607333086,6.5184038765,4.0108997016\H,0,0.705744425,-3.3585528145,
 3.9666760386\H,0,-0.6373333531,-2.7259570756,4.9485338093\H,0,-0.94338
 07232,-3.4264764821,3.3411156291\\Version=ES64L-G16RevA.03\State=2-A\H
 F=-954.2331745\S2=0.760391\S2-1=0.\S2A=0.750073\RMSD=4.154e-09\Dipole=
 0.0941248,-1.9476325,-0.0377439\Quadrupole=11.1865675,-17.3084028,6.12
 18353,-2.139411,1.7830888,8.7898083\PG=C01 [X(C11H11N1O1S1)]\\@


 WISDOM IS KNOWING WHAT TO DO,
 SKILL IS KNOWING HOW TO DO IT,
 AND VIRTUE IS NOT DOING IT.
 Job cpu time:       0 days  0 hours 18 minutes 25.4 seconds.
 Elapsed time:       0 days  0 hours  5 minutes 23.3 seconds.
 File lengths (MBytes):  RWF=    200 Int=      0 D2E=      0 Chk=     20 Scr=      8
 Normal termination of Gaussian 16 at Thu Dec 10 11:09:13 2020.
