 Entering Gaussian System, Link 0=g16
 Initial command:
 /apps/brussel/CO7/broadwell/software/Gaussian/G16.A.03-intel-2017b/g16/l1.exe "/scratch/brussel/102/vsc10255/3579389[3930].master01.hydra.brussel.vsc/Gau-13738.inp" -scrdir="/scratch/brussel/102/vsc10255/3579389[3930].master01.hydra.brussel.vsc/"
 Entering Link 1 = /apps/brussel/CO7/broadwell/software/Gaussian/G16.A.03-intel-2017b/g16/l1.exe.bin PID=     13739.
  
 Copyright (c) 1988,1990,1992,1993,1995,1998,2003,2009,2016,
            Gaussian, Inc.  All Rights Reserved.
  
 This is part of the Gaussian(R) 16 program.  It is based on
 the Gaussian(R) 09 system (copyright 2009, Gaussian, Inc.),
 the Gaussian(R) 03 system (copyright 2003, Gaussian, Inc.),
 the Gaussian(R) 98 system (copyright 1998, Gaussian, Inc.),
 the Gaussian(R) 94 system (copyright 1995, Gaussian, Inc.),
 the Gaussian 92(TM) system (copyright 1992, Gaussian, Inc.),
 the Gaussian 90(TM) system (copyright 1990, Gaussian, Inc.),
 the Gaussian 88(TM) system (copyright 1988, Gaussian, Inc.),
 the Gaussian 86(TM) system (copyright 1986, Carnegie Mellon
 University), and the Gaussian 82(TM) system (copyright 1983,
 Carnegie Mellon University). Gaussian is a federally registered
 trademark of Gaussian, Inc.
  
 This software contains proprietary and confidential information,
 including trade secrets, belonging to Gaussian, Inc.
  
 This software is provided under written license and may be
 used, copied, transmitted, or stored only in accord with that
 written license.
  
 The following legend is applicable only to US Government
 contracts under FAR:
  
                    RESTRICTED RIGHTS LEGEND
  
 Use, reproduction and disclosure by the US Government is
 subject to restrictions as set forth in subparagraphs (a)
 and (c) of the Commercial Computer Software - Restricted
 Rights clause in FAR 52.227-19.
  
 Gaussian, Inc.
 340 Quinnipiac St., Bldg. 40, Wallingford CT 06492
  
  
 ---------------------------------------------------------------
 Warning -- This program may not be used in any manner that
 competes with the business of Gaussian, Inc. or will provide
 assistance to any competitor of Gaussian, Inc.  The licensee
 of this program is prohibited from giving any competitor of
 Gaussian, Inc. access to this program.  By using this program,
 the user acknowledges that Gaussian, Inc. is engaged in the
 business of creating and licensing software in the field of
 computational chemistry and represents and warrants to the
 licensee that it is not a competitor of Gaussian, Inc. and that
 it will not use this program in any manner prohibited above.
 ---------------------------------------------------------------
  

 Cite this work as:
 Gaussian 16, Revision A.03,
 M. J. Frisch, G. W. Trucks, H. B. Schlegel, G. E. Scuseria, 
 M. A. Robb, J. R. Cheeseman, G. Scalmani, V. Barone, 
 G. A. Petersson, H. Nakatsuji, X. Li, M. Caricato, A. V. Marenich, 
 J. Bloino, B. G. Janesko, R. Gomperts, B. Mennucci, H. P. Hratchian, 
 J. V. Ortiz, A. F. Izmaylov, J. L. Sonnenberg, D. Williams-Young, 
 F. Ding, F. Lipparini, F. Egidi, J. Goings, B. Peng, A. Petrone, 
 T. Henderson, D. Ranasinghe, V. G. Zakrzewski, J. Gao, N. Rega, 
 G. Zheng, W. Liang, M. Hada, M. Ehara, K. Toyota, R. Fukuda, 
 J. Hasegawa, M. Ishida, T. Nakajima, Y. Honda, O. Kitao, H. Nakai, 
 T. Vreven, K. Throssell, J. A. Montgomery, Jr., J. E. Peralta, 
 F. Ogliaro, M. J. Bearpark, J. J. Heyd, E. N. Brothers, K. N. Kudin, 
 V. N. Staroverov, T. A. Keith, R. Kobayashi, J. Normand, 
 K. Raghavachari, A. P. Rendell, J. C. Burant, S. S. Iyengar, 
 J. Tomasi, M. Cossi, J. M. Millam, M. Klene, C. Adamo, R. Cammi, 
 J. W. Ochterski, R. L. Martin, K. Morokuma, O. Farkas, 
 J. B. Foresman, and D. J. Fox, Gaussian, Inc., Wallingford CT, 2016.
 
 ******************************************
 Gaussian 16:  ES64L-G16RevA.03 25-Dec-2016
                14-Dec-2020 
 ******************************************
 %chk=JID_3930.chk
 %mem=8GB
 %nprocshared=4
 Will use up to    4 processors via shared memory.
 -----------------------------------------------------------
 # opt freq B3LYP/6-31G(d) empiricaldispersion=gd3bj scf=xqc
 -----------------------------------------------------------
 1/18=20,19=15,26=3,38=1/1,3;
 2/9=110,12=2,17=6,18=5,40=1/2;
 3/5=1,6=6,7=1,11=2,25=1,30=1,71=1,74=-5,124=41/1,2,3;
 4//1;
 5/5=2,8=3,13=1,38=5/2,8;
 6/7=2,8=2,9=2,10=2,28=1/1;
 7//1,2,3,16;
 1/18=20,19=15,26=3/3(2);
 2/9=110/2;
 99//99;
 2/9=110/2;
 3/5=1,6=6,7=1,11=2,25=1,30=1,71=1,74=-5,124=41/1,2,3;
 4/5=5,16=3,69=1/1;
 5/5=2,8=3,13=1,38=5/2,8;
 7//1,2,3,16;
 1/18=20,19=15,26=3/3(-5);
 2/9=110/2;
 6/7=2,8=2,9=2,10=2,19=2,28=1/1;
 99/9=1/99;
 -------------------------------
 CID_106554771_JID_3930_neutraal
 -------------------------------
 Symbolic Z-matrix:
 Charge =  0 Multiplicity = 1
 C                     1.03074  -0.01695   0.09364 
 C                     1.03079  -1.38808   0.76404 
 C                     1.85207  -1.52348   2.08191 
 C                     2.23665  -0.18881   2.74148 
 C                     0.97016  -2.30118   3.0926 
 N                     3.06292  -2.34795   1.90055 
 C                     4.02526  -2.03916   1.00021 
 N                     3.98127  -1.16892   0.01961 
 C                     5.18969  -1.23887  -0.62805 
 C                     5.99968  -2.16817  -0.01719 
 N                     5.2487   -2.67211   1.01003 
 C                     5.67861  -3.70155   1.92212 
 C                     5.46014  -0.38689  -1.8046 
 H                     0.54216   0.73021   0.72685 
 H                     0.46692  -0.06526  -0.84418 
 H                     2.03501   0.33721  -0.14514 
 H                    -0.02343  -1.62584   0.96078 
 H                     1.35655  -2.13913   0.03303 
 H                     1.349     0.4079    2.97843 
 H                     2.78033  -0.35676   3.67914 
 H                     2.89108   0.41368   2.10318 
 H                     0.69859  -3.28853   2.69997 
 H                     1.49502  -2.46334   4.04175 
 H                     0.04505  -1.75696   3.31435 
 H                     3.33842  -2.84254   2.7406 
 H                     7.00475  -2.50399  -0.22869 
 H                     5.70151  -3.28298   2.93159 
 H                     4.97607  -4.53677   1.86483 
 H                     6.6788   -4.0442    1.64431 
 H                     4.63415  -0.45125  -2.51987 
 H                     5.57125   0.65775  -1.49882 
 H                     6.37707  -0.69532  -2.31635 
 

 GradGradGradGradGradGradGradGradGradGradGradGradGradGradGradGradGradGrad
 Berny optimization.
 Initialization pass.
                           ----------------------------
                           !    Initial Parameters    !
                           ! (Angstroms and Degrees)  !
 --------------------------                            --------------------------
 ! Name  Definition              Value          Derivative Info.                !
 --------------------------------------------------------------------------------
 ! R1    R(1,2)                  1.5262         estimate D2E/DX2                !
 ! R2    R(1,14)                 1.0945         estimate D2E/DX2                !
 ! R3    R(1,15)                 1.0953         estimate D2E/DX2                !
 ! R4    R(1,16)                 1.0913         estimate D2E/DX2                !
 ! R5    R(2,3)                  1.5587         estimate D2E/DX2                !
 ! R6    R(2,17)                 1.0985         estimate D2E/DX2                !
 ! R7    R(2,18)                 1.0975         estimate D2E/DX2                !
 ! R8    R(3,4)                  1.5376         estimate D2E/DX2                !
 ! R9    R(3,5)                  1.5505         estimate D2E/DX2                !
 ! R10   R(3,6)                  1.4761         estimate D2E/DX2                !
 ! R11   R(4,19)                 1.0955         estimate D2E/DX2                !
 ! R12   R(4,20)                 1.0968         estimate D2E/DX2                !
 ! R13   R(4,21)                 1.0949         estimate D2E/DX2                !
 ! R14   R(5,22)                 1.0967         estimate D2E/DX2                !
 ! R15   R(5,23)                 1.0967         estimate D2E/DX2                !
 ! R16   R(5,24)                 1.096          estimate D2E/DX2                !
 ! R17   R(6,7)                  1.3535         estimate D2E/DX2                !
 ! R18   R(6,25)                 1.013          estimate D2E/DX2                !
 ! R19   R(7,8)                  1.3118         estimate D2E/DX2                !
 ! R20   R(7,11)                 1.3775         estimate D2E/DX2                !
 ! R21   R(8,9)                  1.3728         estimate D2E/DX2                !
 ! R22   R(9,10)                 1.3758         estimate D2E/DX2                !
 ! R23   R(9,13)                 1.4776         estimate D2E/DX2                !
 ! R24   R(10,11)                1.3686         estimate D2E/DX2                !
 ! R25   R(10,26)                1.0806         estimate D2E/DX2                !
 ! R26   R(11,12)                1.441          estimate D2E/DX2                !
 ! R27   R(12,27)                1.093          estimate D2E/DX2                !
 ! R28   R(12,28)                1.0929         estimate D2E/DX2                !
 ! R29   R(12,29)                1.0931         estimate D2E/DX2                !
 ! R30   R(13,30)                1.0945         estimate D2E/DX2                !
 ! R31   R(13,31)                1.0941         estimate D2E/DX2                !
 ! R32   R(13,32)                1.0944         estimate D2E/DX2                !
 ! A1    A(2,1,14)             111.0489         estimate D2E/DX2                !
 ! A2    A(2,1,15)             109.6625         estimate D2E/DX2                !
 ! A3    A(2,1,16)             112.8062         estimate D2E/DX2                !
 ! A4    A(14,1,15)            107.198          estimate D2E/DX2                !
 ! A5    A(14,1,16)            108.4112         estimate D2E/DX2                !
 ! A6    A(15,1,16)            107.4976         estimate D2E/DX2                !
 ! A7    A(1,2,3)              116.7071         estimate D2E/DX2                !
 ! A8    A(1,2,17)             105.8482         estimate D2E/DX2                !
 ! A9    A(1,2,18)             108.7966         estimate D2E/DX2                !
 ! A10   A(3,2,17)             109.5993         estimate D2E/DX2                !
 ! A11   A(3,2,18)             110.3223         estimate D2E/DX2                !
 ! A12   A(17,2,18)            104.8348         estimate D2E/DX2                !
 ! A13   A(2,3,4)              114.775          estimate D2E/DX2                !
 ! A14   A(2,3,5)              107.1576         estimate D2E/DX2                !
 ! A15   A(2,3,6)              112.1392         estimate D2E/DX2                !
 ! A16   A(4,3,5)              107.3389         estimate D2E/DX2                !
 ! A17   A(4,3,6)              109.4123         estimate D2E/DX2                !
 ! A18   A(5,3,6)              105.4571         estimate D2E/DX2                !
 ! A19   A(3,4,19)             111.2795         estimate D2E/DX2                !
 ! A20   A(3,4,20)             110.9637         estimate D2E/DX2                !
 ! A21   A(3,4,21)             112.153          estimate D2E/DX2                !
 ! A22   A(19,4,20)            107.4659         estimate D2E/DX2                !
 ! A23   A(19,4,21)            108.1004         estimate D2E/DX2                !
 ! A24   A(20,4,21)            106.6412         estimate D2E/DX2                !
 ! A25   A(3,5,22)             111.0414         estimate D2E/DX2                !
 ! A26   A(3,5,23)             111.476          estimate D2E/DX2                !
 ! A27   A(3,5,24)             111.2805         estimate D2E/DX2                !
 ! A28   A(22,5,23)            107.1721         estimate D2E/DX2                !
 ! A29   A(22,5,24)            108.0872         estimate D2E/DX2                !
 ! A30   A(23,5,24)            107.5953         estimate D2E/DX2                !
 ! A31   A(3,6,7)              122.5158         estimate D2E/DX2                !
 ! A32   A(3,6,25)             113.1981         estimate D2E/DX2                !
 ! A33   A(7,6,25)             118.01           estimate D2E/DX2                !
 ! A34   A(6,7,8)              128.6627         estimate D2E/DX2                !
 ! A35   A(6,7,11)             121.4594         estimate D2E/DX2                !
 ! A36   A(8,7,11)             109.8728         estimate D2E/DX2                !
 ! A37   A(7,8,9)              106.8184         estimate D2E/DX2                !
 ! A38   A(8,9,10)             110.071          estimate D2E/DX2                !
 ! A39   A(8,9,13)             120.4901         estimate D2E/DX2                !
 ! A40   A(10,9,13)            129.4387         estimate D2E/DX2                !
 ! A41   A(9,10,11)            105.0054         estimate D2E/DX2                !
 ! A42   A(9,10,26)            132.114          estimate D2E/DX2                !
 ! A43   A(11,10,26)           122.8772         estimate D2E/DX2                !
 ! A44   A(7,11,10)            108.2283         estimate D2E/DX2                !
 ! A45   A(7,11,12)            126.7083         estimate D2E/DX2                !
 ! A46   A(10,11,12)           125.0584         estimate D2E/DX2                !
 ! A47   A(11,12,27)           108.4961         estimate D2E/DX2                !
 ! A48   A(11,12,28)           108.7231         estimate D2E/DX2                !
 ! A49   A(11,12,29)           109.636          estimate D2E/DX2                !
 ! A50   A(27,12,28)           110.7646         estimate D2E/DX2                !
 ! A51   A(27,12,29)           109.6072         estimate D2E/DX2                !
 ! A52   A(28,12,29)           109.5901         estimate D2E/DX2                !
 ! A53   A(9,13,30)            110.3845         estimate D2E/DX2                !
 ! A54   A(9,13,31)            110.2778         estimate D2E/DX2                !
 ! A55   A(9,13,32)            111.2956         estimate D2E/DX2                !
 ! A56   A(30,13,31)           108.3856         estimate D2E/DX2                !
 ! A57   A(30,13,32)           108.0661         estimate D2E/DX2                !
 ! A58   A(31,13,32)           108.3409         estimate D2E/DX2                !
 ! D1    D(14,1,2,3)           -64.7175         estimate D2E/DX2                !
 ! D2    D(14,1,2,17)           57.5017         estimate D2E/DX2                !
 ! D3    D(14,1,2,18)          169.697          estimate D2E/DX2                !
 ! D4    D(15,1,2,3)           176.9921         estimate D2E/DX2                !
 ! D5    D(15,1,2,17)          -60.7888         estimate D2E/DX2                !
 ! D6    D(15,1,2,18)           51.4066         estimate D2E/DX2                !
 ! D7    D(16,1,2,3)            57.2163         estimate D2E/DX2                !
 ! D8    D(16,1,2,17)          179.4355         estimate D2E/DX2                !
 ! D9    D(16,1,2,18)          -68.3692         estimate D2E/DX2                !
 ! D10   D(1,2,3,4)             15.9932         estimate D2E/DX2                !
 ! D11   D(1,2,3,5)            135.0723         estimate D2E/DX2                !
 ! D12   D(1,2,3,6)           -109.6665         estimate D2E/DX2                !
 ! D13   D(17,2,3,4)          -104.2483         estimate D2E/DX2                !
 ! D14   D(17,2,3,5)            14.8309         estimate D2E/DX2                !
 ! D15   D(17,2,3,6)           130.0921         estimate D2E/DX2                !
 ! D16   D(18,2,3,4)           140.8103         estimate D2E/DX2                !
 ! D17   D(18,2,3,5)          -100.1106         estimate D2E/DX2                !
 ! D18   D(18,2,3,6)            15.1506         estimate D2E/DX2                !
 ! D19   D(2,3,4,19)            58.3899         estimate D2E/DX2                !
 ! D20   D(2,3,4,20)           178.0037         estimate D2E/DX2                !
 ! D21   D(2,3,4,21)           -62.8456         estimate D2E/DX2                !
 ! D22   D(5,3,4,19)           -60.5878         estimate D2E/DX2                !
 ! D23   D(5,3,4,20)            59.026          estimate D2E/DX2                !
 ! D24   D(5,3,4,21)           178.1767         estimate D2E/DX2                !
 ! D25   D(6,3,4,19)          -174.5451         estimate D2E/DX2                !
 ! D26   D(6,3,4,20)           -54.9313         estimate D2E/DX2                !
 ! D27   D(6,3,4,21)            64.2194         estimate D2E/DX2                !
 ! D28   D(2,3,5,22)            58.8823         estimate D2E/DX2                !
 ! D29   D(2,3,5,23)           178.3074         estimate D2E/DX2                !
 ! D30   D(2,3,5,24)           -61.57           estimate D2E/DX2                !
 ! D31   D(4,3,5,22)          -177.3488         estimate D2E/DX2                !
 ! D32   D(4,3,5,23)           -57.9237         estimate D2E/DX2                !
 ! D33   D(4,3,5,24)            62.1989         estimate D2E/DX2                !
 ! D34   D(6,3,5,22)           -60.7601         estimate D2E/DX2                !
 ! D35   D(6,3,5,23)            58.665          estimate D2E/DX2                !
 ! D36   D(6,3,5,24)           178.7877         estimate D2E/DX2                !
 ! D37   D(2,3,6,7)             58.3223         estimate D2E/DX2                !
 ! D38   D(2,3,6,25)          -150.1428         estimate D2E/DX2                !
 ! D39   D(4,3,6,7)            -70.2172         estimate D2E/DX2                !
 ! D40   D(4,3,6,25)            81.3177         estimate D2E/DX2                !
 ! D41   D(5,3,6,7)            174.6138         estimate D2E/DX2                !
 ! D42   D(5,3,6,25)           -33.8513         estimate D2E/DX2                !
 ! D43   D(3,6,7,8)            -12.8216         estimate D2E/DX2                !
 ! D44   D(3,6,7,11)           168.0888         estimate D2E/DX2                !
 ! D45   D(25,6,7,8)          -163.072          estimate D2E/DX2                !
 ! D46   D(25,6,7,11)           17.8385         estimate D2E/DX2                !
 ! D47   D(6,7,8,9)           -178.7713         estimate D2E/DX2                !
 ! D48   D(11,7,8,9)             0.403          estimate D2E/DX2                !
 ! D49   D(6,7,11,10)          179.2179         estimate D2E/DX2                !
 ! D50   D(6,7,11,12)           -0.005          estimate D2E/DX2                !
 ! D51   D(8,7,11,10)           -0.0262         estimate D2E/DX2                !
 ! D52   D(8,7,11,12)         -179.2491         estimate D2E/DX2                !
 ! D53   D(7,8,9,10)            -0.641          estimate D2E/DX2                !
 ! D54   D(7,8,9,13)           179.2475         estimate D2E/DX2                !
 ! D55   D(8,9,10,11)            0.6131         estimate D2E/DX2                !
 ! D56   D(8,9,10,26)          179.9305         estimate D2E/DX2                !
 ! D57   D(13,9,10,11)        -179.2625         estimate D2E/DX2                !
 ! D58   D(13,9,10,26)           0.0549         estimate D2E/DX2                !
 ! D59   D(8,9,13,30)          -49.0207         estimate D2E/DX2                !
 ! D60   D(8,9,13,31)           70.7153         estimate D2E/DX2                !
 ! D61   D(8,9,13,32)         -169.0155         estimate D2E/DX2                !
 ! D62   D(10,9,13,30)         130.8437         estimate D2E/DX2                !
 ! D63   D(10,9,13,31)        -109.4203         estimate D2E/DX2                !
 ! D64   D(10,9,13,32)          10.8489         estimate D2E/DX2                !
 ! D65   D(9,10,11,7)           -0.358          estimate D2E/DX2                !
 ! D66   D(9,10,11,12)         178.881          estimate D2E/DX2                !
 ! D67   D(26,10,11,7)        -179.7551         estimate D2E/DX2                !
 ! D68   D(26,10,11,12)         -0.5162         estimate D2E/DX2                !
 ! D69   D(7,11,12,27)         -63.4024         estimate D2E/DX2                !
 ! D70   D(7,11,12,28)          57.1355         estimate D2E/DX2                !
 ! D71   D(7,11,12,29)         176.9246         estimate D2E/DX2                !
 ! D72   D(10,11,12,27)        117.4993         estimate D2E/DX2                !
 ! D73   D(10,11,12,28)       -121.9629         estimate D2E/DX2                !
 ! D74   D(10,11,12,29)         -2.1737         estimate D2E/DX2                !
 --------------------------------------------------------------------------------
 Trust Radius=3.00D-01 FncErr=1.00D-07 GrdErr=1.00D-06 EigMax=2.50D+02 EigMin=1.00D-04
 Number of steps in this run=    174 maximum allowed number of steps=    192.
 GradGradGradGradGradGradGradGradGradGradGradGradGradGradGradGradGradGrad

                          Input orientation:                          
 ---------------------------------------------------------------------
 Center     Atomic      Atomic             Coordinates (Angstroms)
 Number     Number       Type             X           Y           Z
 ---------------------------------------------------------------------
      1          6           0        1.030740   -0.016950    0.093640
      2          6           0        1.030790   -1.388080    0.764040
      3          6           0        1.852070   -1.523480    2.081910
      4          6           0        2.236650   -0.188810    2.741480
      5          6           0        0.970160   -2.301180    3.092600
      6          7           0        3.062920   -2.347950    1.900550
      7          6           0        4.025260   -2.039160    1.000210
      8          7           0        3.981270   -1.168920    0.019610
      9          6           0        5.189690   -1.238870   -0.628050
     10          6           0        5.999680   -2.168170   -0.017190
     11          7           0        5.248700   -2.672110    1.010030
     12          6           0        5.678610   -3.701550    1.922120
     13          6           0        5.460140   -0.386890   -1.804600
     14          1           0        0.542160    0.730210    0.726850
     15          1           0        0.466920   -0.065260   -0.844180
     16          1           0        2.035010    0.337210   -0.145140
     17          1           0       -0.023430   -1.625840    0.960780
     18          1           0        1.356550   -2.139130    0.033030
     19          1           0        1.349000    0.407900    2.978430
     20          1           0        2.780330   -0.356760    3.679140
     21          1           0        2.891080    0.413680    2.103180
     22          1           0        0.698590   -3.288530    2.699970
     23          1           0        1.495020   -2.463340    4.041750
     24          1           0        0.045050   -1.756960    3.314350
     25          1           0        3.338420   -2.842540    2.740600
     26          1           0        7.004750   -2.503990   -0.228690
     27          1           0        5.701510   -3.282980    2.931590
     28          1           0        4.976070   -4.536770    1.864830
     29          1           0        6.678800   -4.044200    1.644310
     30          1           0        4.634150   -0.451250   -2.519870
     31          1           0        5.571250    0.657750   -1.498820
     32          1           0        6.377070   -0.695320   -2.316350
 ---------------------------------------------------------------------
                    Distance matrix (angstroms):
                    1          2          3          4          5
     1  C    0.000000
     2  C    1.526248   0.000000
     3  C    2.626296   1.558722   0.000000
     4  C    2.914586   2.608182   1.537621   0.000000
     5  C    3.770297   2.501923   1.550509   2.487848   0.000000
     6  N    3.581653   2.518444   1.476076   2.460035   2.408903
     7  C    3.725366   3.073521   2.481684   3.107240   3.712194
     8  N    3.168303   3.050826   2.985345   3.378297   4.448827
     9  C    4.394404   4.388237   4.308665   4.601826   5.725048
    10  C    5.415754   5.090062   4.693028   5.068384   5.914774
    11  N    5.067626   4.415881   3.742375   4.270497   4.772902
    12  C    6.206634   5.319354   4.405897   4.985758   5.049808
    13  C    4.833193   5.217225   5.423557   5.576465   6.914260
    14  H    1.094492   2.174234   2.937885   2.788302   3.869016
    15  H    1.095323   2.157353   3.550641   4.000521   4.555307
    16  H    1.091331   2.193557   2.907815   2.941076   4.310217
    17  H    2.109913   1.098461   2.187444   3.216195   2.447031
    18  H    2.147900   1.097530   2.196013   3.451670   3.088127
    19  H    2.933224   2.868854   2.187934   1.095505   2.737822
    20  H    4.004041   3.552790   2.184959   1.096814   2.720572
    21  H    2.772104   2.915530   2.198314   1.094851   3.469777
    22  H    4.196012   2.733110   2.197252   3.460580   1.096708
    23  H    4.667757   3.480672   2.202679   2.722904   1.096658
    24  H    3.791067   2.758956   2.199714   2.755065   1.095982
    25  H    4.507299   3.368590   2.093568   2.873357   2.454716
    26  H    6.479048   6.157838   5.731525   6.075915   6.891181
    27  H    6.366868   5.486761   4.316942   4.649224   4.834825
    28  H    6.255519   5.166355   4.345850   5.213223   4.748957
    29  H    7.108017   6.303163   5.462861   5.983353   6.142006
    30  H    4.472540   4.964466   5.483250   5.787805   6.953192
    31  H    4.858743   5.470076   5.604613   5.460436   7.141879
    32  H    5.903514   6.208980   6.364445   6.556011   7.814743
                    6          7          8          9         10
     6  N    0.000000
     7  C    1.353537   0.000000
     8  N    2.402377   1.311804   0.000000
     9  C    3.485259   2.155827   1.372820   0.000000
    10  C    3.512066   2.224878   2.252517   1.375802   0.000000
    11  N    2.382381   1.377508   2.201566   2.177376   1.368615
    12  C    2.945256   2.519330   3.593706   3.578715   2.493043
    13  C    4.829136   3.557504   2.475150   1.477594   2.580484
    14  H    4.148117   4.458264   3.991787   5.226142   6.224044
    15  H    4.414004   4.467644   3.783498   4.871204   5.976418
    16  H    3.528673   3.304551   2.466475   3.559387   4.691685
    17  H    3.306080   4.069924   4.139106   5.463584   6.126043
    18  H    2.538294   2.840325   2.798329   3.992550   4.643492
    19  H    3.419657   4.130838   4.262607   5.519914   6.102352
    20  H    2.684786   3.399557   3.936244   5.013484   5.225732
    21  H    2.774381   2.918789   2.834502   3.933719   4.563476
    22  H    2.667174   3.939142   4.738466   5.953722   6.061330
    23  H    2.656382   3.979071   4.902507   6.079222   6.070756
    24  H    3.384618   4.612695   5.166714   6.502173   6.835632
    25  H    1.013017   2.036204   3.258534   4.164944   3.891335
    26  H    4.482860   3.256320   3.314438   2.248213   1.080589
    27  H    2.983200   2.843788   3.988496   4.136591   3.166545
    28  H    2.907293   2.808854   3.966973   4.139593   3.193751
    29  H    4.002188   3.387672   4.264218   3.905246   2.596397
    30  H    5.060271   3.909369   2.718503   2.123194   3.328047
    31  H    5.184753   3.988554   2.858389   2.121555   3.219410
    32  H    5.612221   4.282112   3.379477   2.134403   2.756419
                   11         12         13         14         15
    11  N    0.000000
    12  C    1.440999   0.000000
    13  C    3.631677   4.992308   0.000000
    14  H    5.814421   6.888562   5.642932   0.000000
    15  H    5.753189   6.930854   5.094909   1.762546   0.000000
    16  H    4.551728   5.819018   3.874228   1.772968   1.763390
    17  H    5.375171   6.143778   6.265131   2.434253   2.435926
    18  H    4.048139   4.968905   4.825627   3.062308   2.421131
    19  H    5.344971   6.062087   6.356928   2.413397   3.951492
    20  H    4.310202   4.761803   6.103580   3.860949   5.088935
    21  H    4.034284   4.973754   4.744652   2.740785   3.846150
    22  H    4.892788   5.057295   7.168195   4.479726   4.796263
    23  H    4.829599   4.850610   7.362991   4.700560   5.538961
    24  H    5.764145   6.120191   7.576539   3.623298   4.509234
    25  H    2.583232   2.623794   5.584868   4.963749   5.367443
    26  H    2.155552   2.796208   3.058010   7.289594   7.004959
    27  H    2.066541   1.093048   5.556716   6.898222   7.211872
    28  H    2.069291   1.092903   5.560624   6.978226   6.904026
    29  H    2.080896   1.093146   5.172623   7.829117   7.785371
    30  H    4.215458   5.602376   1.094538   5.355504   4.508074
    31  H    4.181666   5.542369   1.094130   5.500055   5.196680
    32  H    4.030598   5.243080   1.094430   6.733452   6.123245
                   16         17         18         19         20
    16  H    0.000000
    17  H    3.051852   0.000000
    18  H    2.573774   1.740268   0.000000
    19  H    3.198796   3.176566   3.893944   0.000000
    20  H    3.957551   4.106229   4.300943   1.767599   0.000000
    21  H    2.406999   3.736186   3.627278   1.773163   1.757695
    22  H    4.798610   2.512097   2.977684   3.763531   3.726619
    23  H    5.066036   3.535459   4.024192   3.065288   2.494231
    24  H    4.507057   2.358214   3.554314   2.549460   3.094412
    25  H    4.487447   3.993764   3.428342   3.818339   2.715037
    26  H    5.725182   7.182012   5.666020   7.124060   6.142268
    27  H    6.001272   6.277352   5.346842   5.706937   4.201772
    28  H    6.037010   5.855409   4.712228   6.232616   5.058209
    29  H    6.630511   7.157902   5.878083   7.071622   5.738973
    30  H    3.607844   5.931917   4.484295   6.462326   6.470958
    31  H    3.800025   6.524175   5.285149   6.159187   5.969065
    32  H    4.963240   7.250645   5.727983   7.384665   6.999790
                   21         22         23         24         25
    21  H    0.000000
    22  H    4.343907   0.000000
    23  H    3.739556   1.765110   0.000000
    24  H    3.778690   1.774904   1.769321   0.000000
    25  H    3.348042   2.677547   2.287992   3.514820   0.000000
    26  H    5.556320   6.997157   6.971043   7.845292   4.730040
    27  H    4.716999   5.008282   4.427056   5.871182   2.411360
    28  H    5.376890   4.533475   4.599544   5.843236   2.513819
    29  H    5.867715   6.119507   5.926079   7.212984   3.715370
    30  H    5.015874   7.126396   7.547019   7.536766   5.921970
    31  H    4.496364   7.546243   7.553461   7.715978   5.933822
    32  H    5.737094   8.008329   8.208882   8.539692   6.278271
                   26         27         28         29         30
    26  H    0.000000
    27  H    3.506085   0.000000
    28  H    3.553950   1.798952   0.000000
    29  H    2.446757   1.786517   1.786209   0.000000
    30  H    3.883683   6.235092   6.002831   5.867732   0.000000
    31  H    3.696587   5.930839   6.217027   5.763182   1.774987
    32  H    2.832595   5.890097   5.848231   5.195466   1.771655
                   31         32
    31  H    0.000000
    32  H    1.774401   0.000000
 Stoichiometry    C10H19N3
 Framework group  C1[X(C10H19N3)]
 Deg. of freedom    90
 Full point group                 C1      NOp   1
 Largest Abelian subgroup         C1      NOp   1
 Largest concise Abelian subgroup C1      NOp   1
                         Standard orientation:                         
 ---------------------------------------------------------------------
 Center     Atomic      Atomic             Coordinates (Angstroms)
 Number     Number       Type             X           Y           Z
 ---------------------------------------------------------------------
      1          6           0       -1.949983    2.298316   -0.266058
      2          6           0       -2.072760    0.914306   -0.897623
      3          6           0       -1.914916   -0.307810    0.056910
      4          6           0       -2.039256    0.023099    1.553345
      5          6           0       -3.046864   -1.308814   -0.290597
      6          7           0       -0.655519   -1.040141   -0.180600
      7          6           0        0.558673   -0.449771   -0.084367
      8          7           0        0.844983    0.828277   -0.010543
      9          6           0        2.213205    0.926308    0.044175
     10          6           0        2.777899   -0.327971    0.017022
     11          7           0        1.719475   -1.191291   -0.069721
     12          6           0        1.826043   -2.626142   -0.149233
     13          6           0        2.867764    2.249013    0.116879
     14          1           0       -2.760847    2.478529    0.446638
     15          1           0       -2.025484    3.066204   -1.043478
     16          1           0       -0.999225    2.445359    0.249151
     17          1           0       -3.063975    0.887100   -1.370242
     18          1           0       -1.362082    0.841492   -1.730813
     19          1           0       -3.007845    0.482055    1.779895
     20          1           0       -1.953787   -0.883839    2.164213
     21          1           0       -1.252305    0.704693    1.892221
     22          1           0       -2.985887   -1.623594   -1.339389
     23          1           0       -2.983933   -2.215124    0.323651
     24          1           0       -4.035138   -0.864685   -0.125547
     25          1           0       -0.722272   -2.028281    0.032302
     26          1           0        3.805719   -0.660624    0.041546
     27          1           0        1.342861   -3.059023    0.730485
     28          1           0        1.336246   -2.964040   -1.065946
     29          1           0        2.879960   -2.915709   -0.168641
     30          1           0        2.462876    2.917394   -0.649506
     31          1           0        2.695964    2.703751    1.097093
     32          1           0        3.947756    2.167224   -0.040297
 ---------------------------------------------------------------------
 Rotational constants (GHZ):           1.1304396           0.5964565           0.4337870
 Standard basis: 6-31G(d) (6D, 7F)
 There are   233 symmetry adapted cartesian basis functions of A   symmetry.
 There are   233 symmetry adapted basis functions of A   symmetry.
   233 basis functions,   440 primitive gaussians,   233 cartesian basis functions
    50 alpha electrons       50 beta electrons
       nuclear repulsion energy       860.0191926418 Hartrees.
 NAtoms=   32 NActive=   32 NUniq=   32 SFac= 1.00D+00 NAtFMM=   60 NAOKFM=F Big=F
 Integral buffers will be    131072 words long.
 Raffenetti 2 integral format.
 Two-electron integral symmetry is turned on.
 Nuclear repulsion after empirical dispersion term =      859.9631606811 Hartrees.
 One-electron integrals computed using PRISM.
 NBasis=   233 RedAO= T EigKep=  1.07D-03  NBF=   233
 NBsUse=   233 1.00D-06 EigRej= -1.00D+00 NBFU=   233
 ExpMin= 1.61D-01 ExpMax= 4.17D+03 ExpMxC= 6.27D+02 IAcc=3 IRadAn=         5 AccDes= 0.00D+00
 Harris functional with IExCor=  402 and IRadAn=       5 diagonalized for initial guess.
 HarFok:  IExCor=  402 AccDes= 0.00D+00 IRadAn=         5 IDoV= 1 UseB2=F ITyADJ=14
 ICtDFT=  3500011 ScaDFX=  1.000000  1.000000  1.000000  1.000000
 FoFCou: FMM=F IPFlag=           0 FMFlag=      100000 FMFlg1=           0
         NFxFlg=           0 DoJE=T BraDBF=F KetDBF=T FulRan=T
         wScrn=  0.000000 ICntrl=       500 IOpCl=  0 I1Cent=   200000004 NGrid=           0
         NMat0=    1 NMatS0=      1 NMatT0=    0 NMatD0=    1 NMtDS0=    0 NMtDT0=    0
 Petite list used in FoFCou.
 Keep R1 ints in memory in canonical form, NReq=378002842.
 Requested convergence on RMS density matrix=1.00D-08 within  32 cycles.
 Requested convergence on MAX density matrix=1.00D-06.
 Requested convergence on             energy=1.00D-06.
 No special actions if energy rises.
 Integral accuracy reduced to 1.0D-05 until final iterations.
 Initial convergence to 1.0D-05 achieved.  Increase integral accuracy.
 SCF Done:  E(RB3LYP) =  -556.812248387     A.U. after   14 cycles
            NFock= 14  Conv=0.42D-08     -V/T= 2.0095
 QCSCF skips out because SCF is already converged.

 **********************************************************************

            Population analysis using the SCF density.

 **********************************************************************

 Orbital symmetries:
       Occupied  (A) (A) (A) (A) (A) (A) (A) (A) (A) (A) (A) (A)
                 (A) (A) (A) (A) (A) (A) (A) (A) (A) (A) (A) (A)
                 (A) (A) (A) (A) (A) (A) (A) (A) (A) (A) (A) (A)
                 (A) (A) (A) (A) (A) (A) (A) (A) (A) (A) (A) (A)
                 (A) (A)
       Virtual   (A) (A) (A) (A) (A) (A) (A) (A) (A) (A) (A) (A)
                 (A) (A) (A) (A) (A) (A) (A) (A) (A) (A) (A) (A)
                 (A) (A) (A) (A) (A) (A) (A) (A) (A) (A) (A) (A)
                 (A) (A) (A) (A) (A) (A) (A) (A) (A) (A) (A) (A)
                 (A) (A) (A) (A) (A) (A) (A) (A) (A) (A) (A) (A)
                 (A) (A) (A) (A) (A) (A) (A) (A) (A) (A) (A) (A)
                 (A) (A) (A) (A) (A) (A) (A) (A) (A) (A) (A) (A)
                 (A) (A) (A) (A) (A) (A) (A) (A) (A) (A) (A) (A)
                 (A) (A) (A) (A) (A) (A) (A) (A) (A) (A) (A) (A)
                 (A) (A) (A) (A) (A) (A) (A) (A) (A) (A) (A) (A)
                 (A) (A) (A) (A) (A) (A) (A) (A) (A) (A) (A) (A)
                 (A) (A) (A) (A) (A) (A) (A) (A) (A) (A) (A) (A)
                 (A) (A) (A) (A) (A) (A) (A) (A) (A) (A) (A) (A)
                 (A) (A) (A) (A) (A) (A) (A) (A) (A) (A) (A) (A)
                 (A) (A) (A) (A) (A) (A) (A) (A) (A) (A) (A) (A)
                 (A) (A) (A)
 The electronic state is 1-A.
 Alpha  occ. eigenvalues --  -14.36738 -14.34117 -14.27680 -10.25328 -10.23223
 Alpha  occ. eigenvalues --  -10.22875 -10.18169 -10.17782 -10.17721 -10.16727
 Alpha  occ. eigenvalues --  -10.16491 -10.16046 -10.14723  -1.01115  -0.92174
 Alpha  occ. eigenvalues --   -0.87074  -0.79141  -0.73808  -0.72384  -0.71746
 Alpha  occ. eigenvalues --   -0.68334  -0.66131  -0.61853  -0.58036  -0.57068
 Alpha  occ. eigenvalues --   -0.53136  -0.51299  -0.47586  -0.47149  -0.46542
 Alpha  occ. eigenvalues --   -0.43898  -0.42560  -0.42190  -0.41563  -0.41345
 Alpha  occ. eigenvalues --   -0.40176  -0.39189  -0.37515  -0.37045  -0.36835
 Alpha  occ. eigenvalues --   -0.36295  -0.35836  -0.35038  -0.32323  -0.32208
 Alpha  occ. eigenvalues --   -0.30513  -0.27827  -0.24307  -0.24065  -0.16590
 Alpha virt. eigenvalues --    0.06189   0.06850   0.09236   0.09886   0.12160
 Alpha virt. eigenvalues --    0.12656   0.12777   0.14059   0.14337   0.15551
 Alpha virt. eigenvalues --    0.15911   0.16025   0.16719   0.17064   0.17421
 Alpha virt. eigenvalues --    0.18524   0.18774   0.19044   0.19943   0.20556
 Alpha virt. eigenvalues --    0.21051   0.22753   0.23158   0.23940   0.25365
 Alpha virt. eigenvalues --    0.26920   0.28473   0.28937   0.31146   0.33245
 Alpha virt. eigenvalues --    0.34696   0.41321   0.43529   0.45836   0.48731
 Alpha virt. eigenvalues --    0.49686   0.50446   0.51921   0.52527   0.53230
 Alpha virt. eigenvalues --    0.54580   0.57219   0.57968   0.58388   0.59682
 Alpha virt. eigenvalues --    0.60482   0.61922   0.62341   0.65292   0.66671
 Alpha virt. eigenvalues --    0.67866   0.70194   0.70704   0.70808   0.72328
 Alpha virt. eigenvalues --    0.72995   0.73768   0.75360   0.77349   0.79086
 Alpha virt. eigenvalues --    0.79752   0.82037   0.83503   0.84373   0.84696
 Alpha virt. eigenvalues --    0.86788   0.87542   0.88005   0.89395   0.89550
 Alpha virt. eigenvalues --    0.90199   0.90534   0.90999   0.91932   0.92491
 Alpha virt. eigenvalues --    0.93025   0.93848   0.95199   0.95460   0.96802
 Alpha virt. eigenvalues --    0.97266   0.97999   0.98130   1.00525   1.01682
 Alpha virt. eigenvalues --    1.02190   1.05700   1.06098   1.08642   1.11118
 Alpha virt. eigenvalues --    1.11683   1.17046   1.18716   1.23179   1.25395
 Alpha virt. eigenvalues --    1.29750   1.31243   1.34674   1.36539   1.38152
 Alpha virt. eigenvalues --    1.40592   1.42618   1.45719   1.49104   1.50316
 Alpha virt. eigenvalues --    1.52302   1.56180   1.58649   1.62365   1.64804
 Alpha virt. eigenvalues --    1.70922   1.74352   1.78204   1.78794   1.81344
 Alpha virt. eigenvalues --    1.83204   1.86489   1.87585   1.89534   1.90246
 Alpha virt. eigenvalues --    1.90508   1.92302   1.95066   1.95627   1.96753
 Alpha virt. eigenvalues --    1.99740   2.01350   2.03174   2.05018   2.07055
 Alpha virt. eigenvalues --    2.10042   2.10822   2.12132   2.15114   2.18867
 Alpha virt. eigenvalues --    2.19822   2.22186   2.23140   2.23705   2.26568
 Alpha virt. eigenvalues --    2.26913   2.29743   2.30306   2.31630   2.32659
 Alpha virt. eigenvalues --    2.33479   2.34114   2.35727   2.37239   2.38418
 Alpha virt. eigenvalues --    2.43407   2.45630   2.47819   2.52366   2.53528
 Alpha virt. eigenvalues --    2.57572   2.61058   2.64419   2.67252   2.68555
 Alpha virt. eigenvalues --    2.73723   2.75267   2.78988   2.81922   2.88385
 Alpha virt. eigenvalues --    2.90627   2.96880   3.12783   3.23241   3.29759
 Alpha virt. eigenvalues --    4.02560   4.10690   4.15986   4.19137   4.20797
 Alpha virt. eigenvalues --    4.27055   4.30570   4.32860   4.39485   4.47262
 Alpha virt. eigenvalues --    4.49630   4.59153   4.73408
          Condensed to atoms (all electrons):
               1          2          3          4          5          6
     1  C    5.105026   0.369376  -0.034259  -0.005441   0.003134   0.001585
     2  C    0.369376   5.058794   0.370225  -0.064902  -0.046736  -0.050521
     3  C   -0.034259   0.370225   4.616238   0.400380   0.378178   0.293900
     4  C   -0.005441  -0.064902   0.400380   5.187856  -0.073793  -0.084637
     5  C    0.003134  -0.046736   0.378178  -0.073793   5.206980  -0.052698
     6  N    0.001585  -0.050521   0.293900  -0.084637  -0.052698   7.155300
     7  C    0.000960  -0.007987  -0.024840   0.000134   0.003903   0.285295
     8  N   -0.017071   0.001500  -0.000491  -0.003918   0.000211  -0.070980
     9  C    0.000104   0.000039  -0.000020   0.000033  -0.000004   0.002007
    10  C   -0.000041   0.000012   0.000038  -0.000025   0.000005   0.007035
    11  N   -0.000012  -0.000043   0.003223  -0.000088  -0.000164  -0.083674
    12  C    0.000001  -0.000004  -0.000132   0.000029  -0.000029  -0.001917
    13  C    0.000078  -0.000016  -0.000005   0.000002  -0.000000  -0.000252
    14  H    0.367251  -0.036897  -0.006908   0.001586   0.000158  -0.000003
    15  H    0.367285  -0.029082   0.004598   0.000263  -0.000139  -0.000071
    16  H    0.369485  -0.031387  -0.003324  -0.001315   0.000036  -0.000255
    17  H   -0.045406   0.370833  -0.044208   0.002660  -0.010199   0.003657
    18  H   -0.034190   0.367525  -0.027386   0.003930   0.000801  -0.006622
    19  H   -0.001662  -0.001282  -0.026921   0.357818  -0.003416   0.005566
    20  H    0.000224   0.005577  -0.027708   0.357962  -0.006830  -0.000926
    21  H    0.001520  -0.006051  -0.021489   0.367883   0.005498  -0.005619
    22  H    0.000101  -0.006064  -0.028616   0.006540   0.361336   0.001466
    23  H   -0.000194   0.005936  -0.026835  -0.006959   0.353937  -0.005929
    24  H    0.000216  -0.006668  -0.024825  -0.000560   0.368604   0.004076
    25  H   -0.000190   0.005859  -0.030937   0.000301  -0.007025   0.299325
    26  H    0.000000  -0.000000   0.000001   0.000000  -0.000000  -0.000077
    27  H   -0.000000   0.000005   0.000050  -0.000047  -0.000006   0.001209
    28  H    0.000000  -0.000018  -0.000008   0.000018  -0.000001   0.004201
    29  H   -0.000000   0.000000   0.000000   0.000000  -0.000000   0.000152
    30  H   -0.000041   0.000007  -0.000001  -0.000001   0.000000  -0.000002
    31  H   -0.000023  -0.000003   0.000001  -0.000000   0.000000  -0.000006
    32  H    0.000000  -0.000000   0.000000  -0.000000   0.000000   0.000002
               7          8          9         10         11         12
     1  C    0.000960  -0.017071   0.000104  -0.000041  -0.000012   0.000001
     2  C   -0.007987   0.001500   0.000039   0.000012  -0.000043  -0.000004
     3  C   -0.024840  -0.000491  -0.000020   0.000038   0.003223  -0.000132
     4  C    0.000134  -0.003918   0.000033  -0.000025  -0.000088   0.000029
     5  C    0.003903   0.000211  -0.000004   0.000005  -0.000164  -0.000029
     6  N    0.285295  -0.070980   0.002007   0.007035  -0.083674  -0.001917
     7  C    4.329924   0.488819  -0.065135  -0.098143   0.388109  -0.035380
     8  N    0.488819   6.932467   0.429171  -0.069303  -0.096277   0.007077
     9  C   -0.065135   0.429171   4.581876   0.557467  -0.045602   0.008341
    10  C   -0.098143  -0.069303   0.557467   5.100729   0.321182  -0.044055
    11  N    0.388109  -0.096277  -0.045602   0.321182   6.865747   0.268988
    12  C   -0.035380   0.007077   0.008341  -0.044055   0.268988   5.002674
    13  C    0.005376  -0.077496   0.388749  -0.087463   0.006223  -0.000134
    14  H   -0.000045   0.000526   0.000000   0.000001   0.000000  -0.000000
    15  H   -0.000011   0.000277  -0.000008   0.000000   0.000000  -0.000000
    16  H    0.000049   0.021905  -0.000606   0.000136   0.000073  -0.000002
    17  H    0.000216   0.000276  -0.000004   0.000000   0.000005  -0.000000
    18  H    0.001705   0.003439  -0.000001   0.000043  -0.000183  -0.000005
    19  H    0.000019   0.000021   0.000001   0.000000   0.000002  -0.000000
    20  H   -0.000535   0.000010   0.000001   0.000005  -0.000050  -0.000017
    21  H    0.004206   0.006268  -0.000042   0.000023  -0.000096  -0.000009
    22  H    0.000056  -0.000012   0.000000   0.000000  -0.000004   0.000001
    23  H   -0.000183  -0.000005  -0.000000   0.000000   0.000007  -0.000018
    24  H   -0.000044   0.000000   0.000000  -0.000000   0.000001   0.000000
    25  H   -0.023924   0.003200  -0.000070  -0.000046  -0.007964   0.005876
    26  H    0.004658   0.005009  -0.027380   0.357890  -0.048439  -0.001732
    27  H   -0.001745  -0.000022  -0.000075   0.001945  -0.049010   0.372714
    28  H   -0.003072  -0.000061   0.000023   0.002061  -0.045619   0.374917
    29  H    0.002408  -0.000191  -0.000249  -0.002577  -0.027109   0.376960
    30  H    0.000293   0.000312  -0.024716   0.002709  -0.000035   0.000002
    31  H    0.000137   0.000081  -0.030582   0.000256   0.000007   0.000002
    32  H   -0.000105   0.003504  -0.025740  -0.000198  -0.000017  -0.000008
              13         14         15         16         17         18
     1  C    0.000078   0.367251   0.367285   0.369485  -0.045406  -0.034190
     2  C   -0.000016  -0.036897  -0.029082  -0.031387   0.370833   0.367525
     3  C   -0.000005  -0.006908   0.004598  -0.003324  -0.044208  -0.027386
     4  C    0.000002   0.001586   0.000263  -0.001315   0.002660   0.003930
     5  C   -0.000000   0.000158  -0.000139   0.000036  -0.010199   0.000801
     6  N   -0.000252  -0.000003  -0.000071  -0.000255   0.003657  -0.006622
     7  C    0.005376  -0.000045  -0.000011   0.000049   0.000216   0.001705
     8  N   -0.077496   0.000526   0.000277   0.021905   0.000276   0.003439
     9  C    0.388749   0.000000  -0.000008  -0.000606  -0.000004  -0.000001
    10  C   -0.087463   0.000001   0.000000   0.000136   0.000000   0.000043
    11  N    0.006223   0.000000   0.000000   0.000073   0.000005  -0.000183
    12  C   -0.000134  -0.000000  -0.000000  -0.000002  -0.000000  -0.000005
    13  C    5.210607  -0.000002  -0.000002  -0.000132  -0.000000  -0.000019
    14  H   -0.000002   0.610854  -0.033660  -0.029277  -0.005212   0.005366
    15  H   -0.000002  -0.033660   0.595027  -0.026435  -0.001924  -0.004449
    16  H   -0.000132  -0.029277  -0.026435   0.508245   0.005406  -0.003195
    17  H   -0.000000  -0.005212  -0.001924   0.005406   0.627502  -0.035515
    18  H   -0.000019   0.005366  -0.004449  -0.003195  -0.035515   0.569863
    19  H   -0.000000   0.002704   0.000002   0.000066   0.000238  -0.000054
    20  H    0.000000   0.000015  -0.000008  -0.000024  -0.000131  -0.000125
    21  H   -0.000024   0.000015  -0.000019   0.002099  -0.000044   0.000061
    22  H    0.000000   0.000006  -0.000003  -0.000000   0.001667   0.001329
    23  H    0.000000  -0.000016   0.000003   0.000007   0.000679  -0.000286
    24  H    0.000000   0.000062  -0.000015   0.000004   0.003224   0.000102
    25  H    0.000006   0.000004   0.000004  -0.000028  -0.000193   0.000210
    26  H   -0.001282  -0.000000  -0.000000  -0.000001  -0.000000  -0.000000
    27  H    0.000004   0.000000   0.000000  -0.000000  -0.000000  -0.000001
    28  H    0.000006  -0.000000  -0.000000  -0.000000   0.000000   0.000010
    29  H   -0.000010   0.000000   0.000000   0.000000   0.000000   0.000000
    30  H    0.356217   0.000001   0.000008   0.000243   0.000000   0.000006
    31  H    0.358805   0.000000  -0.000000   0.000153   0.000000   0.000001
    32  H    0.358536   0.000000  -0.000000   0.000002   0.000000  -0.000000
              19         20         21         22         23         24
     1  C   -0.001662   0.000224   0.001520   0.000101  -0.000194   0.000216
     2  C   -0.001282   0.005577  -0.006051  -0.006064   0.005936  -0.006668
     3  C   -0.026921  -0.027708  -0.021489  -0.028616  -0.026835  -0.024825
     4  C    0.357818   0.357962   0.367883   0.006540  -0.006959  -0.000560
     5  C   -0.003416  -0.006830   0.005498   0.361336   0.353937   0.368604
     6  N    0.005566  -0.000926  -0.005619   0.001466  -0.005929   0.004076
     7  C    0.000019  -0.000535   0.004206   0.000056  -0.000183  -0.000044
     8  N    0.000021   0.000010   0.006268  -0.000012  -0.000005   0.000000
     9  C    0.000001   0.000001  -0.000042   0.000000  -0.000000   0.000000
    10  C    0.000000   0.000005   0.000023   0.000000   0.000000  -0.000000
    11  N    0.000002  -0.000050  -0.000096  -0.000004   0.000007   0.000001
    12  C   -0.000000  -0.000017  -0.000009   0.000001  -0.000018   0.000000
    13  C   -0.000000   0.000000  -0.000024   0.000000   0.000000   0.000000
    14  H    0.002704   0.000015   0.000015   0.000006  -0.000016   0.000062
    15  H    0.000002  -0.000008  -0.000019  -0.000003   0.000003  -0.000015
    16  H    0.000066  -0.000024   0.002099  -0.000000   0.000007   0.000004
    17  H    0.000238  -0.000131  -0.000044   0.001667   0.000679   0.003224
    18  H   -0.000054  -0.000125   0.000061   0.001329  -0.000286   0.000102
    19  H    0.582821  -0.030005  -0.027421  -0.000074   0.000208   0.002140
    20  H   -0.030005   0.603698  -0.031754  -0.000072   0.004687  -0.000102
    21  H   -0.027421  -0.031754   0.530057  -0.000184  -0.000071   0.000017
    22  H   -0.000074  -0.000072  -0.000184   0.570322  -0.034873  -0.025786
    23  H    0.000208   0.004687  -0.000071  -0.034873   0.605217  -0.029353
    24  H    0.002140  -0.000102   0.000017  -0.025786  -0.029353   0.554729
    25  H   -0.000126   0.002563  -0.000343  -0.000007   0.007614  -0.000228
    26  H    0.000000  -0.000000  -0.000001  -0.000000  -0.000000   0.000000
    27  H    0.000001   0.000044   0.000006  -0.000005   0.000010  -0.000000
    28  H   -0.000000  -0.000003  -0.000001   0.000023  -0.000009   0.000000
    29  H   -0.000000   0.000000   0.000000   0.000000  -0.000000   0.000000
    30  H    0.000000   0.000000   0.000000  -0.000000   0.000000  -0.000000
    31  H   -0.000000  -0.000000   0.000013   0.000000  -0.000000   0.000000
    32  H    0.000000  -0.000000   0.000000  -0.000000   0.000000  -0.000000
              25         26         27         28         29         30
     1  C   -0.000190   0.000000  -0.000000   0.000000  -0.000000  -0.000041
     2  C    0.005859  -0.000000   0.000005  -0.000018   0.000000   0.000007
     3  C   -0.030937   0.000001   0.000050  -0.000008   0.000000  -0.000001
     4  C    0.000301   0.000000  -0.000047   0.000018   0.000000  -0.000001
     5  C   -0.007025  -0.000000  -0.000006  -0.000001  -0.000000   0.000000
     6  N    0.299325  -0.000077   0.001209   0.004201   0.000152  -0.000002
     7  C   -0.023924   0.004658  -0.001745  -0.003072   0.002408   0.000293
     8  N    0.003200   0.005009  -0.000022  -0.000061  -0.000191   0.000312
     9  C   -0.000070  -0.027380  -0.000075   0.000023  -0.000249  -0.024716
    10  C   -0.000046   0.357890   0.001945   0.002061  -0.002577   0.002709
    11  N   -0.007964  -0.048439  -0.049010  -0.045619  -0.027109  -0.000035
    12  C    0.005876  -0.001732   0.372714   0.374917   0.376960   0.000002
    13  C    0.000006  -0.001282   0.000004   0.000006  -0.000010   0.356217
    14  H    0.000004  -0.000000   0.000000  -0.000000   0.000000   0.000001
    15  H    0.000004  -0.000000   0.000000  -0.000000   0.000000   0.000008
    16  H   -0.000028  -0.000001  -0.000000  -0.000000   0.000000   0.000243
    17  H   -0.000193  -0.000000  -0.000000   0.000000   0.000000   0.000000
    18  H    0.000210  -0.000000  -0.000001   0.000010   0.000000   0.000006
    19  H   -0.000126   0.000000   0.000001  -0.000000  -0.000000   0.000000
    20  H    0.002563  -0.000000   0.000044  -0.000003   0.000000   0.000000
    21  H   -0.000343  -0.000001   0.000006  -0.000001   0.000000   0.000000
    22  H   -0.000007  -0.000000  -0.000005   0.000023   0.000000  -0.000000
    23  H    0.007614  -0.000000   0.000010  -0.000009  -0.000000   0.000000
    24  H   -0.000228   0.000000  -0.000000   0.000000   0.000000  -0.000000
    25  H    0.429625  -0.000013   0.003645  -0.000549  -0.000109   0.000000
    26  H   -0.000013   0.571695   0.000034   0.000012   0.003720  -0.000081
    27  H    0.003645   0.000034   0.580027  -0.043406  -0.026449   0.000000
    28  H   -0.000549   0.000012  -0.043406   0.563989  -0.024150  -0.000000
    29  H   -0.000109   0.003720  -0.026449  -0.024150   0.520984   0.000000
    30  H    0.000000  -0.000081   0.000000  -0.000000   0.000000   0.569578
    31  H   -0.000000  -0.000027  -0.000001   0.000000   0.000000  -0.034605
    32  H   -0.000000   0.002162   0.000000  -0.000000   0.000001  -0.028008
              31         32
     1  C   -0.000023   0.000000
     2  C   -0.000003  -0.000000
     3  C    0.000001   0.000000
     4  C   -0.000000  -0.000000
     5  C    0.000000   0.000000
     6  N   -0.000006   0.000002
     7  C    0.000137  -0.000105
     8  N    0.000081   0.003504
     9  C   -0.030582  -0.025740
    10  C    0.000256  -0.000198
    11  N    0.000007  -0.000017
    12  C    0.000002  -0.000008
    13  C    0.358805   0.358536
    14  H    0.000000   0.000000
    15  H   -0.000000  -0.000000
    16  H    0.000153   0.000002
    17  H    0.000000   0.000000
    18  H    0.000001  -0.000000
    19  H   -0.000000   0.000000
    20  H   -0.000000  -0.000000
    21  H    0.000013   0.000000
    22  H    0.000000  -0.000000
    23  H   -0.000000   0.000000
    24  H    0.000000  -0.000000
    25  H   -0.000000  -0.000000
    26  H   -0.000027   0.002162
    27  H   -0.000001   0.000000
    28  H    0.000000  -0.000000
    29  H    0.000000   0.000001
    30  H   -0.034605  -0.028008
    31  H    0.582430  -0.030175
    32  H   -0.030175   0.580915
 Mulliken charges:
               1
     1  C   -0.447818
     2  C   -0.268029
     3  C    0.262080
     4  C   -0.445708
     5  C   -0.481742
     6  N   -0.700586
     7  C    0.744880
     8  N   -0.568247
     9  C    0.252420
    10  C   -0.049688
    11  N   -0.449182
    12  C   -0.334140
    13  C   -0.517773
    14  H    0.123470
    15  H    0.128358
    16  H    0.188069
    17  H    0.126475
    18  H    0.157640
    19  H    0.139356
    20  H    0.123504
    21  H    0.175503
    22  H    0.152853
    23  H    0.126424
    24  H    0.154407
    25  H    0.313521
    26  H    0.133851
    27  H    0.161072
    28  H    0.171636
    29  H    0.176617
    30  H    0.158113
    31  H    0.153536
    32  H    0.139129
 Sum of Mulliken charges =   0.00000
 Mulliken charges with hydrogens summed into heavy atoms:
               1
     1  C   -0.007920
     2  C    0.016086
     3  C    0.262080
     4  C   -0.007346
     5  C   -0.048058
     6  N   -0.387065
     7  C    0.744880
     8  N   -0.568247
     9  C    0.252420
    10  C    0.084163
    11  N   -0.449182
    12  C    0.175184
    13  C   -0.066994
 Electronic spatial extent (au):  <R**2>=           2787.0046
 Charge=              0.0000 electrons
 Dipole moment (field-independent basis, Debye):
    X=              0.0747    Y=             -3.6900    Z=              0.2407  Tot=              3.6986
 Quadrupole moment (field-independent basis, Debye-Ang):
   XX=            -75.0175   YY=            -74.9439   ZZ=            -82.6953
   XY=             -2.8220   XZ=             -0.3125   YZ=             -0.3715
 Traceless Quadrupole moment (field-independent basis, Debye-Ang):
   XX=              2.5347   YY=              2.6083   ZZ=             -5.1430
   XY=             -2.8220   XZ=             -0.3125   YZ=             -0.3715
 Octapole moment (field-independent basis, Debye-Ang**2):
  XXX=             17.2718  YYY=            -27.8695  ZZZ=             -1.6375  XYY=             12.9016
  XXY=            -11.4329  XXZ=             -0.4644  XZZ=             -1.9499  YZZ=             -0.7537
  YYZ=             -0.2899  XYZ=              1.5866
 Hexadecapole moment (field-independent basis, Debye-Ang**3):
 XXXX=          -2210.5853 YYYY=          -1175.3289 ZZZZ=           -295.3718 XXXY=            -39.5276
 XXXZ=             -3.4755 YYYX=            -19.2658 YYYZ=             -3.5381 ZZZX=              3.6998
 ZZZY=              1.0722 XXYY=           -568.3958 XXZZ=           -449.1527 YYZZ=           -243.9454
 XXYZ=              2.6245 YYXZ=             -2.6405 ZZXY=             -1.0953
 N-N= 8.599631606811D+02 E-N=-3.010934409076D+03  KE= 5.515950016522D+02
 Calling FoFJK, ICntrl=      2127 FMM=F ISym2X=0 I1Cent= 0 IOpClX= 0 NMat=1 NMatS=1 NMatT=0.
 ***** Axes restored to original set *****
 -------------------------------------------------------------------
 Center     Atomic                   Forces (Hartrees/Bohr)
 Number     Number              X              Y              Z
 -------------------------------------------------------------------
      1        6           0.000489632    0.005673857   -0.002358019
      2        6          -0.000825974    0.002728407   -0.008341097
      3        6          -0.007960150   -0.005451694    0.013065668
      4        6           0.001538722    0.007807821   -0.003076973
      5        6           0.002694305   -0.003738160   -0.001535186
      6        7          -0.022519106   -0.007982055    0.007406036
      7        6           0.028053419   -0.001964422   -0.005943836
      8        7          -0.015107719    0.010326232   -0.002123130
      9        6           0.010824947   -0.009510888    0.001643216
     10        6           0.000019850    0.016779513   -0.021870530
     11        7          -0.002997216   -0.013765956    0.016588651
     12        6          -0.005133367    0.003294173   -0.000624766
     13        6           0.003430099    0.002428078   -0.005116663
     14        1          -0.000979339    0.001354585    0.000403202
     15        1          -0.001143679   -0.000301309   -0.000352767
     16        1           0.001015574   -0.003262111    0.000716331
     17        1           0.001630049   -0.001971697    0.004555791
     18        1           0.003678629    0.000614283    0.004591879
     19        1          -0.000221443    0.000216385   -0.000532491
     20        1          -0.001584524   -0.003247425    0.000081334
     21        1          -0.001568970   -0.001918682   -0.001719642
     22        1          -0.000116049    0.001077897   -0.001686021
     23        1           0.001121507    0.001130886    0.001475726
     24        1           0.002331305    0.000815505   -0.001268622
     25        1           0.003512550    0.002796230   -0.003146325
     26        1          -0.001212728   -0.000707156    0.001271758
     27        1           0.001963403   -0.005336427    0.005657306
     28        1           0.001152615   -0.004426648    0.004517928
     29        1          -0.001798301    0.000428539    0.001128286
     30        1          -0.000635008    0.001896081   -0.000777370
     31        1          -0.000513985    0.003505475   -0.002703325
     32        1           0.000860952    0.000710681    0.000073651
 -------------------------------------------------------------------
 Cartesian Forces:  Max     0.028053419 RMS     0.006519278

 GradGradGradGradGradGradGradGradGradGradGradGradGradGradGradGradGradGrad
 Berny optimization.
 FormGI is forming the generalized inverse of G from B-inverse, IUseBI=4.
 Internal  Forces:  Max     0.023880525 RMS     0.003987710
 Search for a local minimum.
 Step number   1 out of a maximum of  174
 All quantities printed in internal units (Hartrees-Bohrs-Radians)
 Mixed Optimization -- RFO/linear search
 Second derivative matrix not updated -- first step.
 ITU=  0
     Eigenvalues ---    0.00230   0.00230   0.00268   0.00419   0.00685
     Eigenvalues ---    0.01062   0.01149   0.01606   0.01727   0.01790
     Eigenvalues ---    0.02147   0.02243   0.02304   0.02306   0.02376
     Eigenvalues ---    0.03076   0.04081   0.04676   0.05173   0.05295
     Eigenvalues ---    0.05340   0.05361   0.05404   0.05447   0.05704
     Eigenvalues ---    0.06358   0.07421   0.07527   0.07815   0.07881
     Eigenvalues ---    0.09056   0.12715   0.14814   0.14860   0.15190
     Eigenvalues ---    0.15998   0.16000   0.16000   0.16000   0.16000
     Eigenvalues ---    0.16000   0.16000   0.16000   0.16000   0.16000
     Eigenvalues ---    0.16000   0.16000   0.16000   0.16000   0.16000
     Eigenvalues ---    0.16000   0.21928   0.22327   0.23791   0.24996
     Eigenvalues ---    0.24997   0.24999   0.25000   0.26923   0.27608
     Eigenvalues ---    0.28731   0.29773   0.33853   0.33957   0.34037
     Eigenvalues ---    0.34049   0.34054   0.34130   0.34184   0.34205
     Eigenvalues ---    0.34258   0.34293   0.34299   0.34306   0.34340
     Eigenvalues ---    0.34452   0.34463   0.34479   0.34659   0.34847
     Eigenvalues ---    0.35023   0.35923   0.39449   0.43878   0.45471
     Eigenvalues ---    0.46575   0.49790   0.50735   0.54276   0.61376
 RFO step:  Lambda=-9.93062970D-03 EMin= 2.30000000D-03
 Linear search not attempted -- first point.
 Iteration  1 RMS(Cart)=  0.08943264 RMS(Int)=  0.00166893
 Iteration  2 RMS(Cart)=  0.00328145 RMS(Int)=  0.00026805
 Iteration  3 RMS(Cart)=  0.00000402 RMS(Int)=  0.00026804
 Iteration  4 RMS(Cart)=  0.00000000 RMS(Int)=  0.00026804
 Variable       Old X    -DE/DX   Delta X   Delta X   Delta X     New X
                                 (Linear)    (Quad)   (Total)
    R1        2.88419   0.00381   0.00000   0.01239   0.01239   2.89658
    R2        2.06829   0.00159   0.00000   0.00452   0.00452   2.07281
    R3        2.06986   0.00090   0.00000   0.00257   0.00257   2.07243
    R4        2.06232  -0.00028   0.00000  -0.00079  -0.00079   2.06153
    R5        2.94556  -0.00095   0.00000  -0.00341  -0.00341   2.94215
    R6        2.07579  -0.00032   0.00000  -0.00092  -0.00092   2.07487
    R7        2.07403  -0.00239   0.00000  -0.00683  -0.00683   2.06720
    R8        2.90568  -0.00023   0.00000  -0.00077  -0.00077   2.90491
    R9        2.93004  -0.00504   0.00000  -0.01761  -0.01761   2.91243
   R10        2.78938   0.00127   0.00000   0.00351   0.00351   2.79289
   R11        2.07020   0.00018   0.00000   0.00052   0.00052   2.07072
   R12        2.07268  -0.00022   0.00000  -0.00062  -0.00062   2.07205
   R13        2.06897  -0.00099   0.00000  -0.00281  -0.00281   2.06616
   R14        2.07248  -0.00034   0.00000  -0.00096  -0.00096   2.07151
   R15        2.07238   0.00165   0.00000   0.00470   0.00470   2.07708
   R16        2.07111  -0.00182   0.00000  -0.00518  -0.00518   2.06593
   R17        2.55781   0.01978   0.00000   0.03579   0.03579   2.59361
   R18        1.91432  -0.00302   0.00000  -0.00650  -0.00650   1.90783
   R19        2.47895   0.01266   0.00000   0.01988   0.01993   2.49888
   R20        2.60311  -0.00102   0.00000  -0.00134  -0.00121   2.60190
   R21        2.59425   0.01099   0.00000   0.02101   0.02091   2.61517
   R22        2.59989  -0.00258   0.00000  -0.00581  -0.00592   2.59397
   R23        2.79225   0.01229   0.00000   0.03428   0.03428   2.82653
   R24        2.58631   0.02388   0.00000   0.04563   0.04567   2.63198
   R25        2.04202  -0.00116   0.00000  -0.00313  -0.00313   2.03888
   R26        2.72309   0.00994   0.00000   0.02457   0.02457   2.74766
   R27        2.06556   0.00322   0.00000   0.00909   0.00909   2.07465
   R28        2.06529   0.00240   0.00000   0.00678   0.00678   2.07207
   R29        2.06575  -0.00207   0.00000  -0.00583  -0.00583   2.05992
   R30        2.06838   0.00088   0.00000   0.00248   0.00248   2.07086
   R31        2.06761   0.00254   0.00000   0.00719   0.00719   2.07479
   R32        2.06817   0.00049   0.00000   0.00138   0.00138   2.06955
    A1        1.93817   0.00185   0.00000   0.01304   0.01308   1.95125
    A2        1.91397  -0.00006   0.00000  -0.00102  -0.00112   1.91285
    A3        1.96884  -0.00496   0.00000  -0.03073  -0.03075   1.93809
    A4        1.87096  -0.00046   0.00000   0.00038   0.00036   1.87131
    A5        1.89213   0.00183   0.00000   0.01194   0.01204   1.90417
    A6        1.87619   0.00202   0.00000   0.00775   0.00759   1.88377
    A7        2.03692   0.00375   0.00000   0.01444   0.01458   2.05151
    A8        1.84740   0.00245   0.00000   0.03553   0.03562   1.88301
    A9        1.89886   0.00060   0.00000   0.00859   0.00857   1.90743
   A10        1.91287  -0.00443   0.00000  -0.03188  -0.03234   1.88053
   A11        1.92549  -0.00419   0.00000  -0.04148  -0.04167   1.88382
   A12        1.82971   0.00195   0.00000   0.01859   0.01742   1.84713
   A13        2.00320  -0.00351   0.00000  -0.02435  -0.02475   1.97845
   A14        1.87025   0.00249   0.00000   0.02018   0.02034   1.89059
   A15        1.95720  -0.00096   0.00000  -0.02160  -0.02163   1.93557
   A16        1.87342   0.00206   0.00000   0.02869   0.02883   1.90224
   A17        1.90960   0.00243   0.00000   0.01140   0.01100   1.92061
   A18        1.84057  -0.00231   0.00000  -0.01063  -0.01069   1.82988
   A19        1.94219   0.00096   0.00000   0.00483   0.00484   1.94703
   A20        1.93668  -0.00401   0.00000  -0.02311  -0.02319   1.91350
   A21        1.95744  -0.00288   0.00000  -0.01663  -0.01671   1.94073
   A22        1.87563   0.00153   0.00000   0.00841   0.00842   1.88406
   A23        1.88671   0.00093   0.00000   0.00459   0.00460   1.89131
   A24        1.86124   0.00386   0.00000   0.02420   0.02404   1.88528
   A25        1.93804  -0.00133   0.00000  -0.00575  -0.00581   1.93223
   A26        1.94562  -0.00032   0.00000  -0.00000  -0.00003   1.94559
   A27        1.94221  -0.00272   0.00000  -0.02000  -0.02010   1.92211
   A28        1.87051   0.00185   0.00000   0.01842   0.01843   1.88893
   A29        1.88648   0.00170   0.00000   0.00650   0.00638   1.89286
   A30        1.87789   0.00111   0.00000   0.00263   0.00256   1.88045
   A31        2.13830   0.00541   0.00000   0.01789   0.01751   2.15582
   A32        1.97568   0.00118   0.00000   0.00460   0.00400   1.97968
   A33        2.05966  -0.00679   0.00000  -0.04791  -0.04812   2.01155
   A34        2.24559  -0.00439   0.00000  -0.01771  -0.01781   2.22778
   A35        2.11987  -0.00298   0.00000  -0.01227  -0.01237   2.10749
   A36        1.91764   0.00737   0.00000   0.02981   0.02991   1.94755
   A37        1.86433  -0.00243   0.00000  -0.00968  -0.00977   1.85456
   A38        1.92110  -0.00181   0.00000  -0.00943  -0.00964   1.91146
   A39        2.10295   0.00207   0.00000   0.00921   0.00930   2.11225
   A40        2.25913  -0.00026   0.00000   0.00024   0.00033   2.25946
   A41        1.83269   0.00684   0.00000   0.02744   0.02732   1.86001
   A42        2.30582  -0.00190   0.00000  -0.00470  -0.00470   2.30113
   A43        2.14461  -0.00494   0.00000  -0.02257  -0.02257   2.12204
   A44        1.88894  -0.00996   0.00000  -0.03792  -0.03779   1.85115
   A45        2.21148  -0.00027   0.00000  -0.00130  -0.00138   2.21010
   A46        2.18268   0.01023   0.00000   0.03910   0.03902   2.22170
   A47        1.89361   0.00968   0.00000   0.05861   0.05782   1.95143
   A48        1.89758   0.00722   0.00000   0.04354   0.04273   1.94031
   A49        1.91351  -0.00235   0.00000  -0.01653  -0.01637   1.89714
   A50        1.93321  -0.00696   0.00000  -0.03535  -0.03696   1.89625
   A51        1.91301  -0.00417   0.00000  -0.02680  -0.02663   1.88637
   A52        1.91271  -0.00321   0.00000  -0.02220  -0.02205   1.89066
   A53        1.92657   0.00104   0.00000   0.00534   0.00531   1.93189
   A54        1.92471   0.00436   0.00000   0.02507   0.02502   1.94973
   A55        1.94248  -0.00029   0.00000  -0.00035  -0.00038   1.94210
   A56        1.89168  -0.00336   0.00000  -0.02248  -0.02252   1.86916
   A57        1.88611  -0.00016   0.00000   0.00020   0.00020   1.88631
   A58        1.89091  -0.00182   0.00000  -0.00918  -0.00924   1.88167
    D1       -1.12953   0.00004   0.00000   0.00610   0.00600  -1.12353
    D2        1.00359  -0.00136   0.00000   0.00171   0.00175   1.00534
    D3        2.96177   0.00233   0.00000   0.04402   0.04418   3.00595
    D4        3.08910  -0.00049   0.00000  -0.00172  -0.00182   3.08727
    D5       -1.06096  -0.00189   0.00000  -0.00612  -0.00607  -1.06704
    D6        0.89721   0.00180   0.00000   0.03620   0.03636   0.93357
    D7        0.99861   0.00023   0.00000   0.00922   0.00902   1.00763
    D8        3.13174  -0.00118   0.00000   0.00482   0.00476   3.13650
    D9       -1.19327   0.00251   0.00000   0.04714   0.04719  -1.14607
   D10        0.27913  -0.00008   0.00000   0.00001   0.00018   0.27931
   D11        2.35746   0.00213   0.00000   0.03541   0.03529   2.39275
   D12       -1.91404   0.00032   0.00000   0.02311   0.02272  -1.89132
   D13       -1.81948  -0.00245   0.00000  -0.03201  -0.03136  -1.85084
   D14        0.25885  -0.00025   0.00000   0.00339   0.00375   0.26259
   D15        2.27054  -0.00206   0.00000  -0.00891  -0.00882   2.26171
   D16        2.45760   0.00010   0.00000  -0.01271  -0.01268   2.44492
   D17       -1.74726   0.00231   0.00000   0.02269   0.02243  -1.72483
   D18        0.26443   0.00050   0.00000   0.01039   0.00986   0.27429
   D19        1.01910   0.00129   0.00000   0.00847   0.00839   1.02749
   D20        3.10675   0.00119   0.00000   0.00689   0.00677   3.11352
   D21       -1.09686   0.00144   0.00000   0.01081   0.01077  -1.08609
   D22       -1.05746  -0.00114   0.00000  -0.02215  -0.02191  -1.07937
   D23        1.03020  -0.00125   0.00000  -0.02372  -0.02354   1.00666
   D24        3.10977  -0.00100   0.00000  -0.01981  -0.01953   3.09024
   D25       -3.04639  -0.00074   0.00000  -0.03042  -0.03058  -3.07696
   D26       -0.95873  -0.00084   0.00000  -0.03200  -0.03220  -0.99093
   D27        1.12084  -0.00059   0.00000  -0.02809  -0.02819   1.09264
   D28        1.02769  -0.00058   0.00000  -0.02696  -0.02716   1.00053
   D29        3.11205   0.00066   0.00000  -0.00754  -0.00779   3.10426
   D30       -1.07460   0.00001   0.00000  -0.01781  -0.01805  -1.09265
   D31       -3.09532  -0.00214   0.00000  -0.02773  -0.02741  -3.12273
   D32       -1.01096  -0.00089   0.00000  -0.00831  -0.00804  -1.01900
   D33        1.08558  -0.00155   0.00000  -0.01858  -0.01831   1.06727
   D34       -1.06046   0.00049   0.00000  -0.00649  -0.00651  -1.06698
   D35        1.02390   0.00173   0.00000   0.01294   0.01286   1.03675
   D36        3.12043   0.00108   0.00000   0.00267   0.00259   3.12303
   D37        1.01792   0.00067   0.00000   0.07510   0.07507   1.09299
   D38       -2.62049  -0.00181   0.00000   0.00751   0.00709  -2.61339
   D39       -1.22552   0.00413   0.00000   0.11506   0.11536  -1.11016
   D40        1.41926   0.00165   0.00000   0.04747   0.04738   1.46664
   D41        3.04759   0.00179   0.00000   0.08191   0.08223   3.12981
   D42       -0.59082  -0.00069   0.00000   0.01433   0.01425  -0.57657
   D43       -0.22378   0.00066   0.00000  -0.00455  -0.00408  -0.22786
   D44        2.93370   0.00112   0.00000   0.01107   0.01136   2.94506
   D45       -2.84614   0.00093   0.00000   0.05100   0.05071  -2.79543
   D46        0.31134   0.00139   0.00000   0.06662   0.06614   0.37748
   D47       -3.12015   0.00026   0.00000   0.00937   0.00944  -3.11070
   D48        0.00703  -0.00022   0.00000  -0.00506  -0.00509   0.00194
   D49        3.12794  -0.00064   0.00000  -0.02000  -0.01993   3.10801
   D50       -0.00009  -0.00048   0.00000  -0.01149  -0.01169  -0.01177
   D51       -0.00046  -0.00017   0.00000  -0.00671  -0.00645  -0.00691
   D52       -3.12849  -0.00002   0.00000   0.00181   0.00179  -3.12669
   D53       -0.01119   0.00053   0.00000   0.01521   0.01514   0.00395
   D54        3.12846   0.00073   0.00000   0.02229   0.02221  -3.13251
   D55        0.01070  -0.00058   0.00000  -0.01868  -0.01882  -0.00812
   D56        3.14038  -0.00011   0.00000  -0.00240  -0.00242   3.13796
   D57       -3.12872  -0.00080   0.00000  -0.02660  -0.02668   3.12778
   D58        0.00096  -0.00033   0.00000  -0.01032  -0.01029  -0.00933
   D59       -0.85557  -0.00006   0.00000  -0.01408  -0.01410  -0.86967
   D60        1.23421  -0.00078   0.00000  -0.02260  -0.02262   1.21160
   D61       -2.94988  -0.00036   0.00000  -0.01765  -0.01764  -2.96752
   D62        2.28365   0.00018   0.00000  -0.00547  -0.00547   2.27818
   D63       -1.90974  -0.00055   0.00000  -0.01399  -0.01399  -1.92373
   D64        0.18935  -0.00013   0.00000  -0.00904  -0.00901   0.18034
   D65       -0.00625   0.00044   0.00000   0.01524   0.01521   0.00896
   D66        3.12206   0.00019   0.00000   0.00653   0.00649   3.12855
   D67       -3.13732   0.00001   0.00000   0.00076   0.00076  -3.13655
   D68       -0.00901  -0.00024   0.00000  -0.00796  -0.00796  -0.01696
   D69       -1.10658  -0.00096   0.00000  -0.01637  -0.01711  -1.12369
   D70        0.99720   0.00059   0.00000   0.00115   0.00178   0.99899
   D71        3.08792  -0.00034   0.00000  -0.00936  -0.00941   3.07851
   D72        2.05075  -0.00062   0.00000  -0.00586  -0.00650   2.04425
   D73       -2.12865   0.00094   0.00000   0.01166   0.01239  -2.11626
   D74       -0.03794   0.00001   0.00000   0.00115   0.00120  -0.03674
         Item               Value     Threshold  Converged?
 Maximum Force            0.023881     0.000450     NO 
 RMS     Force            0.003988     0.000300     NO 
 Maximum Displacement     0.320091     0.001800     NO 
 RMS     Displacement     0.090624     0.001200     NO 
 Predicted change in Energy=-5.419544D-03
 GradGradGradGradGradGradGradGradGradGradGradGradGradGradGradGradGradGrad

                          Input orientation:                          
 ---------------------------------------------------------------------
 Center     Atomic      Atomic             Coordinates (Angstroms)
 Number     Number       Type             X           Y           Z
 ---------------------------------------------------------------------
      1          6           0        0.976797   -0.087293    0.051148
      2          6           0        0.988306   -1.425725    0.798114
      3          6           0        1.837133   -1.516258    2.100148
      4          6           0        2.235612   -0.143071    2.664585
      5          6           0        1.017178   -2.275894    3.161228
      6          7           0        3.041901   -2.345488    1.887524
      7          6           0        4.035889   -2.023930    0.997421
      8          7           0        3.999943   -1.110384    0.042040
      9          6           0        5.217337   -1.185407   -0.611770
     10          6           0        5.987394   -2.165217   -0.036262
     11          7           0        5.233938   -2.702451    1.004664
     12          6           0        5.614635   -3.781051    1.902333
     13          6           0        5.534780   -0.276699   -1.756629
     14          1           0        0.515935    0.708723    0.648742
     15          1           0        0.388148   -0.184624   -0.869033
     16          1           0        1.987473    0.214772   -0.227031
     17          1           0       -0.048882   -1.676595    1.056661
     18          1           0        1.326163   -2.214976    0.120185
     19          1           0        1.355896    0.468969    2.893140
     20          1           0        2.804352   -0.277025    3.592415
     21          1           0        2.864127    0.407068    1.959065
     22          1           0        0.733884   -3.269216    2.794205
     23          1           0        1.585180   -2.402978    4.093613
     24          1           0        0.105264   -1.721996    3.399526
     25          1           0        3.348314   -2.828958    2.719159
     26          1           0        6.980386   -2.523809   -0.258677
     27          1           0        5.673359   -3.442382    2.944997
     28          1           0        4.904294   -4.614289    1.843836
     29          1           0        6.598475   -4.148211    1.609956
     30          1           0        4.722189   -0.281865   -2.491854
     31          1           0        5.664751    0.762336   -1.426520
     32          1           0        6.454830   -0.584314   -2.264817
 ---------------------------------------------------------------------
                    Distance matrix (angstroms):
                    1          2          3          4          5
     1  C    0.000000
     2  C    1.532804   0.000000
     3  C    2.642068   1.556919   0.000000
     4  C    2.901341   2.585476   1.537211   0.000000
     5  C    3.803183   2.511559   1.541189   2.506027   0.000000
     6  N    3.568805   2.500006   1.477936   2.470741   2.393046
     7  C    3.742197   3.112127   2.511626   3.091612   3.722656
     8  N    3.191584   3.121064   3.013020   3.305496   4.470417
     9  C    4.430293   4.464328   4.346233   4.551006   5.750306
    10  C    5.425079   5.121904   4.712754   5.045742   5.910942
    11  N    5.086403   4.438252   3.761040   4.277350   4.755396
    12  C    6.211302   5.307521   4.408847   5.023318   4.998693
    13  C    4.907050   5.340168   5.484872   5.518106   6.970712
    14  H    1.096884   2.191190   2.966933   2.783248   3.933417
    15  H    1.096683   2.163308   3.562140   3.987644   4.583894
    16  H    1.090914   2.177266   2.904278   2.924221   4.315691
    17  H    2.142185   1.097972   2.161395   3.186853   2.434100
    18  H    2.157280   1.093916   2.160915   3.404976   3.057306
    19  H    2.920626   2.848530   2.191245   1.095779   2.778647
    20  H    3.989552   3.525004   2.167503   1.096484   2.715767
    21  H    2.728837   2.868038   2.184904   1.093363   3.471989
    22  H    4.208087   2.729024   2.184430   3.470558   1.096198
    23  H    4.698302   3.488781   2.196281   2.751792   1.099144
    24  H    3.826677   2.763129   2.174875   2.751641   1.093241
    25  H    4.501011   3.350987   2.095238   2.907761   2.436289
    26  H    6.486577   6.182849   5.747370   6.060219   6.878740
    27  H    6.456676   5.534052   4.374968   4.773069   4.804943
    28  H    6.255610   5.157076   4.367031   5.271364   4.723694
    29  H    7.108037   6.288482   5.462402   6.015643   6.087930
    30  H    4.531300   5.106289   5.561812   5.726360   7.047027
    31  H    4.988214   5.621898   5.681552   5.414416   7.202653
    32  H    5.968214   6.322373   6.422193   6.503500   7.865842
                    6          7          8          9         10
     6  N    0.000000
[...]
   232    N   11  py     Ryd( 3p)     0.00104       1.33409
   233    N   11  py     Ryd( 5p)     0.00004       4.01097
   234    N   11  pz     Val( 2p)     0.75852      -0.14979
   235    N   11  pz     Ryd( 3p)     0.00170       0.76048
   236    N   11  pz     Ryd( 4p)     0.00033       0.99938
   237    N   11  pz     Ryd( 5p)     0.00002       3.92658
   238    N   11  dxy    Ryd( 3d)     0.00046       3.04948
   239    N   11  dxz    Ryd( 3d)     0.00032       2.52825
   240    N   11  dyz    Ryd( 3d)     0.00032       2.51607
   241    N   11  dx2y2  Ryd( 3d)     0.00039       3.01504
   242    N   11  dz2    Ryd( 3d)     0.00031       2.64935
 
   243    C   12  S      Cor( 1S)     0.99963      -9.96571
   244    C   12  S      Val( 2S)     0.52931      -0.15072
   245    C   12  S      Ryd( 3S)     0.00175       1.74093
   246    C   12  S      Ryd( 4S)     0.00038       1.78297
   247    C   12  S      Ryd( 5S)     0.00001      20.02816
   248    C   12  px     Val( 2p)     0.59042      -0.00448
   249    C   12  px     Ryd( 3p)     0.00119       0.65869
   250    C   12  px     Ryd( 4p)     0.00034       0.81778
   251    C   12  px     Ryd( 5p)     0.00003       2.78689
   252    C   12  py     Val( 2p)     0.44265       0.02859
   253    C   12  py     Ryd( 4p)     0.00120       1.37038
   254    C   12  py     Ryd( 3p)     0.00038       0.92852
   255    C   12  py     Ryd( 5p)     0.00004       2.40650
   256    C   12  pz     Val( 2p)     0.60643      -0.00479
   257    C   12  pz     Ryd( 3p)     0.00082       0.56122
   258    C   12  pz     Ryd( 4p)     0.00013       0.92515
   259    C   12  pz     Ryd( 5p)     0.00005       2.87522
   260    C   12  dxy    Ryd( 3d)     0.00045       2.33556
   261    C   12  dxz    Ryd( 3d)     0.00038       2.18804
   262    C   12  dyz    Ryd( 3d)     0.00039       2.01380
   263    C   12  dx2y2  Ryd( 3d)     0.00043       2.29871
   264    C   12  dz2    Ryd( 3d)     0.00047       2.28550
 
   265    C   13  S      Cor( 1S)     0.99963      -9.92667
   266    C   13  S      Val( 2S)     0.53770      -0.14009
   267    C   13  S      Ryd( 4S)     0.00026       1.55537
   268    C   13  S      Ryd( 3S)     0.00037       1.21705
   269    C   13  S      Ryd( 5S)     0.00001      22.52851
   270    C   13  px     Val( 2p)     0.56779       0.01286
   271    C   13  px     Ryd( 4p)     0.00081       0.70355
   272    C   13  px     Ryd( 3p)     0.00005       0.61308
   273    C   13  px     Ryd( 5p)     0.00001       3.07047
   274    C   13  py     Val( 2p)     0.58200       0.01117
   275    C   13  py     Ryd( 3p)     0.00098       0.70870
   276    C   13  py     Ryd( 4p)     0.00005       0.72458
   277    C   13  py     Ryd( 5p)     0.00001       3.06124
   278    C   13  pz     Val( 2p)     0.60170       0.00740
   279    C   13  pz     Ryd( 4p)     0.00048       0.66291
   280    C   13  pz     Ryd( 3p)     0.00008       0.61576
   281    C   13  pz     Ryd( 5p)     0.00000       3.04291
   282    C   13  dxy    Ryd( 3d)     0.00048       2.48187
   283    C   13  dxz    Ryd( 3d)     0.00030       2.09358
   284    C   13  dyz    Ryd( 3d)     0.00047       2.26567
   285    C   13  dx2y2  Ryd( 3d)     0.00020       2.12178
   286    C   13  dz2    Ryd( 3d)     0.00026       2.16346
 
   287    H   14  S      Val( 1S)     0.40317       0.14219
   288    H   14  S      Ryd( 2S)     0.00043       0.54452
   289    H   14  S      Ryd( 4S)     0.00027       1.75045
   290    H   14  S      Ryd( 3S)     0.00001       1.11413
   291    H   14  px     Ryd( 2p)     0.00006       1.90684
   292    H   14  py     Ryd( 2p)     0.00013       2.72899
   293    H   14  pz     Ryd( 2p)     0.00008       2.01228
 
   294    H   15  S      Val( 1S)     0.39949       0.14347
   295    H   15  S      Ryd( 2S)     0.00035       0.43498
   296    H   15  S      Ryd( 4S)     0.00028       1.57198
   297    H   15  S      Ryd( 3S)     0.00002       1.21767
   298    H   15  px     Ryd( 2p)     0.00007       1.89311
   299    H   15  py     Ryd( 2p)     0.00010       2.13776
   300    H   15  pz     Ryd( 2p)     0.00012       2.58217
 
   301    H   16  S      Val( 1S)     0.39589       0.15978
   302    H   16  S      Ryd( 2S)     0.00123       0.56137
   303    H   16  S      Ryd( 4S)     0.00028       2.15054
   304    H   16  S      Ryd( 3S)     0.00002       0.66812
   305    H   16  px     Ryd( 2p)     0.00013       2.77191
   306    H   16  py     Ryd( 2p)     0.00006       1.93923
   307    H   16  pz     Ryd( 2p)     0.00009       2.08042
 
   308    H   17  S      Val( 1S)     0.39959       0.14221
   309    H   17  S      Ryd( 2S)     0.00066       0.45506
   310    H   17  S      Ryd( 4S)     0.00043       1.74880
   311    H   17  S      Ryd( 3S)     0.00001       1.14595
   312    H   17  px     Ryd( 2p)     0.00013       2.65913
   313    H   17  py     Ryd( 2p)     0.00007       1.97214
   314    H   17  pz     Ryd( 2p)     0.00010       2.12876
 
   315    H   18  S      Val( 1S)     0.39623       0.14967
   316    H   18  S      Ryd( 2S)     0.00112       0.59856
   317    H   18  S      Ryd( 4S)     0.00042       2.04049
   318    H   18  S      Ryd( 3S)     0.00001       0.79970
   319    H   18  px     Ryd( 2p)     0.00006       2.02272
   320    H   18  py     Ryd( 2p)     0.00013       2.85247
   321    H   18  pz     Ryd( 2p)     0.00007       1.97649
 
   322    H   19  S      Val( 1S)     0.40040       0.13718
   323    H   19  S      Ryd( 2S)     0.00025       0.50074
   324    H   19  S      Ryd( 4S)     0.00030       1.35245
   325    H   19  S      Ryd( 3S)     0.00002       1.34903
   326    H   19  px     Ryd( 2p)     0.00009       2.35542
   327    H   19  py     Ryd( 2p)     0.00008       2.03192
   328    H   19  pz     Ryd( 2p)     0.00010       2.31599
 
   329    H   20  S      Val( 1S)     0.40225       0.13704
   330    H   20  S      Ryd( 2S)     0.00029       0.56150
   331    H   20  S      Ryd( 3S)     0.00038       1.33805
   332    H   20  S      Ryd( 4S)     0.00004       1.46902
   333    H   20  px     Ryd( 2p)     0.00006       1.97134
   334    H   20  py     Ryd( 2p)     0.00008       2.09719
   335    H   20  pz     Ryd( 2p)     0.00012       2.59758
 
   336    H   21  S      Val( 1S)     0.38479       0.16815
   337    H   21  S      Ryd( 2S)     0.00075       0.63480
   338    H   21  S      Ryd( 4S)     0.00034       1.83307
   339    H   21  S      Ryd( 3S)     0.00004       1.02702
   340    H   21  px     Ryd( 2p)     0.00015       2.68560
   341    H   21  py     Ryd( 2p)     0.00006       2.04259
   342    H   21  pz     Ryd( 2p)     0.00005       2.06858
 
   343    H   22  S      Val( 1S)     0.39384       0.14583
   344    H   22  S      Ryd( 2S)     0.00070       0.44381
   345    H   22  S      Ryd( 4S)     0.00034       1.60118
   346    H   22  S      Ryd( 3S)     0.00003       1.10707
   347    H   22  px     Ryd( 2p)     0.00005       1.96083
   348    H   22  py     Ryd( 2p)     0.00013       2.80587
   349    H   22  pz     Ryd( 2p)     0.00006       1.91644
 
   350    H   23  S      Val( 1S)     0.40281       0.13061
   351    H   23  S      Ryd( 2S)     0.00031       0.50118
   352    H   23  S      Ryd( 4S)     0.00036       1.51291
   353    H   23  S      Ryd( 3S)     0.00001       1.08259
   354    H   23  px     Ryd( 2p)     0.00007       1.90519
   355    H   23  py     Ryd( 2p)     0.00007       2.03054
   356    H   23  pz     Ryd( 2p)     0.00013       2.70260
 
   357    H   24  S      Val( 1S)     0.39881       0.13583
   358    H   24  S      Ryd( 2S)     0.00056       0.47066
   359    H   24  S      Ryd( 4S)     0.00028       1.56225
   360    H   24  S      Ryd( 3S)     0.00001       1.10543
   361    H   24  px     Ryd( 2p)     0.00011       2.47662
   362    H   24  py     Ryd( 2p)     0.00007       2.03096
   363    H   24  pz     Ryd( 2p)     0.00008       2.11747
 
   364    H   25  S      Val( 1S)     0.31442       0.18012
   365    H   25  S      Ryd( 2S)     0.00066       0.50151
   366    H   25  S      Ryd( 3S)     0.00078       1.01967
   367    H   25  S      Ryd( 4S)     0.00018       2.33452
   368    H   25  px     Ryd( 2p)     0.00018       2.10174
   369    H   25  py     Ryd( 2p)     0.00039       2.03972
   370    H   25  pz     Ryd( 2p)     0.00021       2.69810
 
   371    H   26  S      Val( 1S)     0.39335       0.13111
   372    H   26  S      Ryd( 2S)     0.00087       0.36432
   373    H   26  S      Ryd( 4S)     0.00024       1.60320
   374    H   26  S      Ryd( 3S)     0.00002       1.00869
   375    H   26  px     Ryd( 2p)     0.00014       2.45181
   376    H   26  py     Ryd( 2p)     0.00013       2.40096
   377    H   26  pz     Ryd( 2p)     0.00015       1.89605
 
   378    H   27  S      Val( 1S)     0.39755       0.11816
   379    H   27  S      Ryd( 2S)     0.00151       0.39057
   380    H   27  S      Ryd( 4S)     0.00027       1.50702
   381    H   27  S      Ryd( 3S)     0.00002       1.26398
   382    H   27  px     Ryd( 2p)     0.00010       2.25918
   383    H   27  py     Ryd( 2p)     0.00008       2.25213
   384    H   27  pz     Ryd( 2p)     0.00009       2.05478
 
   385    H   28  S      Val( 1S)     0.38435       0.13476
   386    H   28  S      Ryd( 2S)     0.00137       0.52536
   387    H   28  S      Ryd( 4S)     0.00032       1.88249
   388    H   28  S      Ryd( 3S)     0.00003       0.87898
   389    H   28  px     Ryd( 2p)     0.00012       2.60158
   390    H   28  py     Ryd( 2p)     0.00006       1.94907
   391    H   28  pz     Ryd( 2p)     0.00009       2.17616
 
   392    H   29  S      Val( 1S)     0.39777       0.11893
   393    H   29  S      Ryd( 2S)     0.00178       0.40466
   394    H   29  S      Ryd( 4S)     0.00026       1.51383
   395    H   29  S      Ryd( 3S)     0.00002       1.33717
   396    H   29  px     Ryd( 2p)     0.00007       1.95305
   397    H   29  py     Ryd( 2p)     0.00006       1.97293
   398    H   29  pz     Ryd( 2p)     0.00014       2.69615
 
   399    H   30  S      Val( 1S)     0.39629       0.13179
   400    H   30  S      Ryd( 2S)     0.00019       0.44078
   401    H   30  S      Ryd( 3S)     0.00062       0.85849
   402    H   30  S      Ryd( 4S)     0.00009       1.84910
   403    H   30  px     Ryd( 2p)     0.00009       1.90648
   404    H   30  py     Ryd( 2p)     0.00011       2.43741
   405    H   30  pz     Ryd( 2p)     0.00009       2.23485
 
   406    H   31  S      Val( 1S)     0.39712       0.13005
   407    H   31  S      Ryd( 2S)     0.00021       0.38838
   408    H   31  S      Ryd( 3S)     0.00062       0.82676
   409    H   31  S      Ryd( 4S)     0.00010       1.86686
   410    H   31  px     Ryd( 2p)     0.00008       1.94803
   411    H   31  py     Ryd( 2p)     0.00008       2.06204
   412    H   31  pz     Ryd( 2p)     0.00013       2.55410
 
   413    H   32  S      Val( 1S)     0.39772       0.12757
   414    H   32  S      Ryd( 2S)     0.00022       0.42594
   415    H   32  S      Ryd( 3S)     0.00026       1.12001
   416    H   32  S      Ryd( 4S)     0.00005       1.59005
   417    H   32  px     Ryd( 2p)     0.00012       2.47418
   418    H   32  py     Ryd( 2p)     0.00007       2.07263
   419    H   32  pz     Ryd( 2p)     0.00008       2.00046

 WARNING:  Population inversion found on atom  C    1
           Population inversion found on atom  C    2
           Population inversion found on atom  C    3
           Population inversion found on atom  C    4
           Population inversion found on atom  C    5
           Population inversion found on atom  N    6
           Population inversion found on atom  C    7
           Population inversion found on atom  N    8
           Population inversion found on atom  C    9
           Population inversion found on atom  C   10
           Population inversion found on atom  N   11
           Population inversion found on atom  C   12
           Population inversion found on atom  C   13
           Population inversion found on atom  H   14
           Population inversion found on atom  H   15
           Population inversion found on atom  H   16
           Population inversion found on atom  H   17
           Population inversion found on atom  H   18
           Population inversion found on atom  H   19
           Population inversion found on atom  H   20
           Population inversion found on atom  H   21
           Population inversion found on atom  H   22
           Population inversion found on atom  H   23
           Population inversion found on atom  H   24
           Population inversion found on atom  H   25
           Population inversion found on atom  H   26
           Population inversion found on atom  H   27
           Population inversion found on atom  H   28
           Population inversion found on atom  H   29
           Population inversion found on atom  H   30
           Population inversion found on atom  H   31
           Population inversion found on atom  H   32


 Summary of Natural Population Analysis:                  
                                                          
                                       Natural Population 
                Natural  -----------------------------------------------
    Atom  No    Charge         Core      Valence    Rydberg      Total
 -----------------------------------------------------------------------
      C    1   -0.28717      0.99965     2.28173    0.00579     3.28717
      C    2   -0.19604      0.99958     2.18664    0.00982     3.19604
      C    3    0.06270      0.99956     1.92401    0.01372     2.93730
      C    4   -0.29883      0.99961     2.29323    0.00599     3.29883
      C    5   -0.28343      0.99961     2.27600    0.00781     3.28343
      N    6   -0.35196      0.99968     2.84043    0.01185     3.85196
      C    7    0.27906      0.99957     1.70230    0.01906     2.72094
      N    8   -0.27701      0.99967     2.76821    0.00914     3.77701
      C    9    0.05153      0.99955     1.93483    0.01409     2.94847
      C   10   -0.03730      0.99947     2.02571    0.01212     3.03730
      N   11   -0.20809      0.99961     2.69675    0.01173     3.70809
      C   12   -0.17689      0.99963     2.16881    0.00845     3.17689
      C   13   -0.29364      0.99963     2.28919    0.00482     3.29364
      H   14    0.09585      0.00000     0.40317    0.00098     0.40415
      H   15    0.09958      0.00000     0.39949    0.00093     0.40042
      H   16    0.10229      0.00000     0.39589    0.00182     0.39771
      H   17    0.09902      0.00000     0.39959    0.00139     0.40098
      H   18    0.10196      0.00000     0.39623    0.00181     0.39804
      H   19    0.09876      0.00000     0.40040    0.00084     0.40124
      H   20    0.09677      0.00000     0.40225    0.00098     0.40323
      H   21    0.11381      0.00000     0.38479    0.00140     0.38619
      H   22    0.10486      0.00000     0.39384    0.00130     0.39514
      H   23    0.09625      0.00000     0.40281    0.00094     0.40375
      H   24    0.10007      0.00000     0.39881    0.00112     0.39993
      H   25    0.18319      0.00000     0.31442    0.00238     0.31681
      H   26    0.10511      0.00000     0.39335    0.00154     0.39489
      H   27    0.10038      0.00000     0.39755    0.00207     0.39962
      H   28    0.11365      0.00000     0.38435    0.00200     0.38635
      H   29    0.09989      0.00000     0.39777    0.00234     0.40011
      H   30    0.10252      0.00000     0.39629    0.00119     0.39748
      H   31    0.10165      0.00000     0.39712    0.00123     0.39835
      H   32    0.10147      0.00000     0.39772    0.00081     0.39853
 =======================================================================
   * Total *    0.00000     12.99482    36.84371    0.16147    50.00000

                                 Natural Population      
 --------------------------------------------------------
   Core                      12.99482 ( 99.9602% of  13)
   Valence                   36.84371 ( 99.5776% of  37)
   Natural Minimal Basis     49.83853 ( 99.6771% of  50)
   Natural Rydberg Basis      0.16147 (  0.3229% of  50)
 --------------------------------------------------------

    Atom  No          Natural Electron Configuration
 ----------------------------------------------------------------------------
      C    1      [core]2S( 0.54)2p( 1.74)
      C    2      [core]2S( 0.51)2p( 1.68)
      C    3      [core]2S( 0.45)2p( 1.47)3p( 0.01)
      C    4      [core]2S( 0.54)2p( 1.76)
      C    5      [core]2S( 0.54)2p( 1.74)
      N    6      [core]2S( 0.66)2p( 2.18)3p( 0.01)
      C    7      [core]2S( 0.37)2p( 1.34)3p( 0.01)
      N    8      [core]2S( 0.70)2p( 2.06)
      C    9      [core]2S( 0.43)2p( 1.51)3p( 0.01)
      C   10      [core]2S( 0.46)2p( 1.57)
      N   11      [core]2S( 0.60)2p( 2.09)
      C   12      [core]2S( 0.53)2p( 1.64)
      C   13      [core]2S( 0.54)2p( 1.75)
      H   14            1S( 0.40)
      H   15            1S( 0.40)
      H   16            1S( 0.40)
      H   17            1S( 0.40)
      H   18            1S( 0.40)
      H   19            1S( 0.40)
      H   20            1S( 0.40)
      H   21            1S( 0.38)
      H   22            1S( 0.39)
      H   23            1S( 0.40)
      H   24            1S( 0.40)
      H   25            1S( 0.31)
      H   26            1S( 0.39)
      H   27            1S( 0.40)
      H   28            1S( 0.38)
      H   29            1S( 0.40)
      H   30            1S( 0.40)
      H   31            1S( 0.40)
      H   32            1S( 0.40)


 NBO analysis skipped by request.
 1\1\GINC-NODE213\SP\UB3LYP\6-311++G(d,p)\C10H19N3(1-,2)\VSC10255\14-De
 c-2020\0\\# B3LYP/6-311++G(d,p) empiricaldispersion=gd3bj scf=xqc pop=
 npa geom=check\\CID_106554771_JID_3930_Energie_anion\\-1,2\C,0,1.58713
 02155,-1.5912078582,-0.2634240779\C,0,1.3466370498,-2.1590302856,1.141
 8394929\C,0,1.9610222894,-1.4090243623,2.3473650795\C,0,1.7539084132,0
 .1099191654,2.2317909414\C,0,1.297102874,-1.9305985662,3.6294941186\N,
 0,3.4147475434,-1.7479834491,2.4962994555\C,0,4.2537336136,-1.52010009
 13,1.3939108526\N,0,4.7135196013,-0.3639299112,0.9437001805\C,0,5.4755
 606554,-0.6640535291,-0.1683029937\C,0,5.4668104757,-2.0221830254,-0.3
 851896908\N,0,4.6966103503,-2.5688686799,0.625584345\C,0,4.4143086717,
 -3.9746985228,0.8342916758\C,0,6.1682932569,0.4020659936,-0.9547067146
 \H,0,1.1887848804,-0.5758696436,-0.3545603022\H,0,1.0688588126,-2.2132
 533536,-1.0025338964\H,0,2.6428380296,-1.5563100277,-0.5404784207\H,0,
 0.2621217312,-2.1848178624,1.310113292\H,0,1.68193611,-3.2023414973,1.
 1888744008\H,0,0.6983642995,0.3500843072,2.0556724396\H,0,2.0597520602
 ,0.6050718482,3.1616474062\H,0,2.3564769568,0.5266581759,1.42189682\H,
 0,1.3919935806,-3.0192980368,3.6987568292\H,0,1.7675753302,-1.49221516
 92,4.5182032436\H,0,0.2341649264,-1.6671038287,3.6507204565\H,0,3.7735
 27301,-1.2129176955,3.2853168945\H,0,5.937144392,-2.6392279632,-1.1367
 075907\H,0,5.340302943,-4.5550576673,0.7774826059\H,0,3.9742420663,-4.
 0794829884,1.826629405\H,0,3.710209125,-4.3526725085,0.0844718026\H,0,
 5.4524620471,1.1430149633,-1.3297601803\H,0,6.8946300251,0.9412326149,
 -0.3348169918\H,0,6.7002103728,-0.024040545,-1.8114708788\\Version=ES6
 4L-G16RevA.03\State=2-A\HF=-556.9634301\S2=0.750035\S2-1=0.\S2A=0.75\R
 MSD=6.894e-09\Dipole=0.0790468,1.917441,0.5169857\Quadrupole=-3.143869
 4,-1.2087024,4.3525718,1.9606354,8.902985,-3.3905327\PG=C01 [X(C10H19N
 3)]\\@


 EVERYTHING'S GOT A MORAL, IF ONLY YOU CAN FIND IT.

                                    -- LEWIS CARROL, ALICE IN WONDERLAND
 Job cpu time:       0 days  0 hours 52 minutes 16.9 seconds.
 Elapsed time:       0 days  0 hours 13 minutes 10.7 seconds.
 File lengths (MBytes):  RWF=    220 Int=      0 D2E=      0 Chk=     24 Scr=      8
 Normal termination of Gaussian 16 at Mon Dec 14 17:37:35 2020.
