 Entering Gaussian System, Link 0=g16
 Initial command:
 /apps/brussel/CO7/broadwell/software/Gaussian/G16.A.03-intel-2017b/g16/l1.exe "/scratch/brussel/102/vsc10255/3576570[7950].master01.hydra.brussel.vsc/Gau-18810.inp" -scrdir="/scratch/brussel/102/vsc10255/3576570[7950].master01.hydra.brussel.vsc/"
 Entering Link 1 = /apps/brussel/CO7/broadwell/software/Gaussian/G16.A.03-intel-2017b/g16/l1.exe.bin PID=     18811.
  
 Copyright (c) 1988,1990,1992,1993,1995,1998,2003,2009,2016,
            Gaussian, Inc.  All Rights Reserved.
  
 This is part of the Gaussian(R) 16 program.  It is based on
 the Gaussian(R) 09 system (copyright 2009, Gaussian, Inc.),
 the Gaussian(R) 03 system (copyright 2003, Gaussian, Inc.),
 the Gaussian(R) 98 system (copyright 1998, Gaussian, Inc.),
 the Gaussian(R) 94 system (copyright 1995, Gaussian, Inc.),
 the Gaussian 92(TM) system (copyright 1992, Gaussian, Inc.),
 the Gaussian 90(TM) system (copyright 1990, Gaussian, Inc.),
 the Gaussian 88(TM) system (copyright 1988, Gaussian, Inc.),
 the Gaussian 86(TM) system (copyright 1986, Carnegie Mellon
 University), and the Gaussian 82(TM) system (copyright 1983,
 Carnegie Mellon University). Gaussian is a federally registered
 trademark of Gaussian, Inc.
  
 This software contains proprietary and confidential information,
 including trade secrets, belonging to Gaussian, Inc.
  
 This software is provided under written license and may be
 used, copied, transmitted, or stored only in accord with that
 written license.
  
 The following legend is applicable only to US Government
 contracts under FAR:
  
                    RESTRICTED RIGHTS LEGEND
  
 Use, reproduction and disclosure by the US Government is
 subject to restrictions as set forth in subparagraphs (a)
 and (c) of the Commercial Computer Software - Restricted
 Rights clause in FAR 52.227-19.
  
 Gaussian, Inc.
 340 Quinnipiac St., Bldg. 40, Wallingford CT 06492
  
  
 ---------------------------------------------------------------
 Warning -- This program may not be used in any manner that
 competes with the business of Gaussian, Inc. or will provide
 assistance to any competitor of Gaussian, Inc.  The licensee
 of this program is prohibited from giving any competitor of
 Gaussian, Inc. access to this program.  By using this program,
 the user acknowledges that Gaussian, Inc. is engaged in the
 business of creating and licensing software in the field of
 computational chemistry and represents and warrants to the
 licensee that it is not a competitor of Gaussian, Inc. and that
 it will not use this program in any manner prohibited above.
 ---------------------------------------------------------------
  

 Cite this work as:
 Gaussian 16, Revision A.03,
 M. J. Frisch, G. W. Trucks, H. B. Schlegel, G. E. Scuseria, 
 M. A. Robb, J. R. Cheeseman, G. Scalmani, V. Barone, 
 G. A. Petersson, H. Nakatsuji, X. Li, M. Caricato, A. V. Marenich, 
 J. Bloino, B. G. Janesko, R. Gomperts, B. Mennucci, H. P. Hratchian, 
 J. V. Ortiz, A. F. Izmaylov, J. L. Sonnenberg, D. Williams-Young, 
 F. Ding, F. Lipparini, F. Egidi, J. Goings, B. Peng, A. Petrone, 
 T. Henderson, D. Ranasinghe, V. G. Zakrzewski, J. Gao, N. Rega, 
 G. Zheng, W. Liang, M. Hada, M. Ehara, K. Toyota, R. Fukuda, 
 J. Hasegawa, M. Ishida, T. Nakajima, Y. Honda, O. Kitao, H. Nakai, 
 T. Vreven, K. Throssell, J. A. Montgomery, Jr., J. E. Peralta, 
 F. Ogliaro, M. J. Bearpark, J. J. Heyd, E. N. Brothers, K. N. Kudin, 
 V. N. Staroverov, T. A. Keith, R. Kobayashi, J. Normand, 
 K. Raghavachari, A. P. Rendell, J. C. Burant, S. S. Iyengar, 
 J. Tomasi, M. Cossi, J. M. Millam, M. Klene, C. Adamo, R. Cammi, 
 J. W. Ochterski, R. L. Martin, K. Morokuma, O. Farkas, 
 J. B. Foresman, and D. J. Fox, Gaussian, Inc., Wallingford CT, 2016.
 
 ******************************************
 Gaussian 16:  ES64L-G16RevA.03 25-Dec-2016
                14-Dec-2020 
 ******************************************
 %chk=JID_7950.chk
 %mem=8GB
 %nprocshared=4
 Will use up to    4 processors via shared memory.
 -----------------------------------------------------------
 # opt freq B3LYP/6-31G(d) empiricaldispersion=gd3bj scf=xqc
 -----------------------------------------------------------
 1/18=20,19=15,26=3,38=1/1,3;
 2/9=110,12=2,17=6,18=5,40=1/2;
 3/5=1,6=6,7=1,11=2,25=1,30=1,71=1,74=-5,124=41/1,2,3;
 4//1;
 5/5=2,8=3,13=1,38=5/2,8;
 6/7=2,8=2,9=2,10=2,28=1/1;
 7//1,2,3,16;
 1/18=20,19=15,26=3/3(2);
 2/9=110/2;
 99//99;
 2/9=110/2;
 3/5=1,6=6,7=1,11=2,25=1,30=1,71=1,74=-5,124=41/1,2,3;
 4/5=5,16=3,69=1/1;
 5/5=2,8=3,13=1,38=5/2,8;
 7//1,2,3,16;
 1/18=20,19=15,26=3/3(-5);
 2/9=110/2;
 6/7=2,8=2,9=2,10=2,19=2,28=1/1;
 99/9=1/99;
 -------------------------------
 CID_106835330_JID_7950_neutraal
 -------------------------------
 Symbolic Z-matrix:
 Charge =  0 Multiplicity = 1
 C                    -2.946     0.042     0.025 
 C                    -1.44772   0.14964  -0.00769 
 C                    -0.58537  -0.96238  -0.04999 
 C                     0.807    -0.72665  -0.04949 
 C                     1.35401   0.55833  -0.08372 
 C                     0.48907   1.64273  -0.00391 
 C                    -0.89275   1.44393   0.00904 
 N                     2.73822   0.74508   0.03235 
 N                    -0.9768   -2.30837  -0.05606 
 C                    -1.19269  -2.8634    1.28158 
 C                    -1.11957  -4.3904    1.20512 
 C                    -2.08189  -4.96363   0.14804 
 C                    -1.85726  -4.25666  -1.2076 
 C                    -1.94203  -2.73673  -1.06645 
 C                    -1.93851  -6.49159  -0.01303 
 C                    -2.15395  -7.27371   1.27798 
 O                    -2.89349  -6.95659  -0.96964 
 H                    -3.33133  -0.17987  -0.97455 
 H                    -3.27358  -0.72471   0.73199 
 H                    -3.4058    0.97994   0.35648 
 H                     1.47183  -1.58762  -0.04076 
 H                     0.87946   2.65489   0.04946 
 H                    -1.54104   2.31667   0.05374 
 H                     3.27666  -0.03109  -0.34053 
 H                     3.05633   1.63959  -0.32609 
 H                    -2.16855  -2.55624   1.67657 
 H                    -0.42656  -2.51553   1.9861 
 H                    -1.34958  -4.79687   2.19593 
 H                    -0.09185  -4.69053   0.96235 
 H                    -3.11238  -4.74366   0.46118 
 H                    -0.87087  -4.53004  -1.6047 
 H                    -2.60242  -4.58671  -1.9405 
 H                    -1.7202   -2.27664  -2.03691 
 H                    -2.9658   -2.46893  -0.78622 
 H                    -0.94627  -6.73335  -0.41085 
 H                    -3.11994  -7.02438   1.73047 
 H                    -2.17134  -8.3499    1.07291 
 H                    -1.36335  -7.08069   2.00819 
 H                    -3.78149  -6.80919  -0.60183 
 

 GradGradGradGradGradGradGradGradGradGradGradGradGradGradGradGradGradGrad
 Berny optimization.
 Initialization pass.
                           ----------------------------
                           !    Initial Parameters    !
                           ! (Angstroms and Degrees)  !
 --------------------------                            --------------------------
 ! Name  Definition              Value          Derivative Info.                !
 --------------------------------------------------------------------------------
 ! R1    R(1,2)                  1.5025         estimate D2E/DX2                !
 ! R2    R(1,18)                 1.094          estimate D2E/DX2                !
 ! R3    R(1,19)                 1.0932         estimate D2E/DX2                !
 ! R4    R(1,20)                 1.0959         estimate D2E/DX2                !
 ! R5    R(2,3)                  1.4078         estimate D2E/DX2                !
 ! R6    R(2,7)                  1.4084         estimate D2E/DX2                !
 ! R7    R(3,4)                  1.4122         estimate D2E/DX2                !
 ! R8    R(3,9)                  1.4018         estimate D2E/DX2                !
 ! R9    R(4,5)                  1.397          estimate D2E/DX2                !
 ! R10   R(4,21)                 1.0878         estimate D2E/DX2                !
 ! R11   R(5,6)                  1.3894         estimate D2E/DX2                !
 ! R12   R(5,8)                  1.4016         estimate D2E/DX2                !
 ! R13   R(6,7)                  1.3961         estimate D2E/DX2                !
 ! R14   R(6,22)                 1.0861         estimate D2E/DX2                !
 ! R15   R(7,23)                 1.0881         estimate D2E/DX2                !
 ! R16   R(8,24)                 1.0156         estimate D2E/DX2                !
 ! R17   R(8,25)                 1.0148         estimate D2E/DX2                !
 ! R18   R(9,10)                 1.4642         estimate D2E/DX2                !
 ! R19   R(9,14)                 1.4615         estimate D2E/DX2                !
 ! R20   R(10,11)                1.5307         estimate D2E/DX2                !
 ! R21   R(10,26)                1.0967         estimate D2E/DX2                !
 ! R22   R(10,27)                1.0974         estimate D2E/DX2                !
 ! R23   R(11,12)                1.5402         estimate D2E/DX2                !
 ! R24   R(11,28)                1.0954         estimate D2E/DX2                !
 ! R25   R(11,29)                1.0978         estimate D2E/DX2                !
 ! R26   R(12,13)                1.5453         estimate D2E/DX2                !
 ! R27   R(12,15)                1.5431         estimate D2E/DX2                !
 ! R28   R(12,30)                1.0993         estimate D2E/DX2                !
 ! R29   R(13,14)                1.5288         estimate D2E/DX2                !
 ! R30   R(13,31)                1.0979         estimate D2E/DX2                !
 ! R31   R(13,32)                1.0961         estimate D2E/DX2                !
 ! R32   R(14,33)                1.0967         estimate D2E/DX2                !
 ! R33   R(14,34)                1.0947         estimate D2E/DX2                !
 ! R34   R(15,16)                1.5247         estimate D2E/DX2                !
 ! R35   R(15,17)                1.4294         estimate D2E/DX2                !
 ! R36   R(15,35)                1.096          estimate D2E/DX2                !
 ! R37   R(16,36)                1.0955         estimate D2E/DX2                !
 ! R38   R(16,37)                1.0957         estimate D2E/DX2                !
 ! R39   R(16,38)                1.0934         estimate D2E/DX2                !
 ! R40   R(17,39)                0.9724         estimate D2E/DX2                !
 ! A1    A(2,1,18)             110.236          estimate D2E/DX2                !
 ! A2    A(2,1,19)             111.2933         estimate D2E/DX2                !
 ! A3    A(2,1,20)             111.3244         estimate D2E/DX2                !
 ! A4    A(18,1,19)            110.0671         estimate D2E/DX2                !
 ! A5    A(18,1,20)            107.587          estimate D2E/DX2                !
 ! A6    A(19,1,20)            106.1961         estimate D2E/DX2                !
 ! A7    A(1,2,3)              123.7024         estimate D2E/DX2                !
 ! A8    A(1,2,7)              117.2923         estimate D2E/DX2                !
 ! A9    A(3,2,7)              119.0051         estimate D2E/DX2                !
 ! A10   A(2,3,4)              118.1692         estimate D2E/DX2                !
 ! A11   A(2,3,9)              125.9821         estimate D2E/DX2                !
 ! A12   A(4,3,9)              115.824          estimate D2E/DX2                !
 ! A13   A(3,4,5)              122.6567         estimate D2E/DX2                !
 ! A14   A(3,4,21)             118.0649         estimate D2E/DX2                !
 ! A15   A(5,4,21)             119.2682         estimate D2E/DX2                !
 ! A16   A(4,5,6)              118.2123         estimate D2E/DX2                !
 ! A17   A(4,5,8)              120.4807         estimate D2E/DX2                !
 ! A18   A(6,5,8)              120.4024         estimate D2E/DX2                !
 ! A19   A(5,6,7)              120.3682         estimate D2E/DX2                !
 ! A20   A(5,6,22)             120.4234         estimate D2E/DX2                !
 ! A21   A(7,6,22)             119.2084         estimate D2E/DX2                !
 ! A22   A(2,7,6)              121.3843         estimate D2E/DX2                !
 ! A23   A(2,7,23)             120.1873         estimate D2E/DX2                !
 ! A24   A(6,7,23)             118.4162         estimate D2E/DX2                !
 ! A25   A(5,8,24)             113.0402         estimate D2E/DX2                !
 ! A26   A(5,8,25)             113.4399         estimate D2E/DX2                !
 ! A27   A(24,8,25)            112.1968         estimate D2E/DX2                !
 ! A28   A(3,9,10)             113.6529         estimate D2E/DX2                !
 ! A29   A(3,9,14)             117.9591         estimate D2E/DX2                !
 ! A30   A(10,9,14)            115.0296         estimate D2E/DX2                !
 ! A31   A(9,10,11)            108.9945         estimate D2E/DX2                !
 ! A32   A(9,10,26)            110.7364         estimate D2E/DX2                !
 ! A33   A(9,10,27)            111.3085         estimate D2E/DX2                !
 ! A34   A(11,10,26)           109.8718         estimate D2E/DX2                !
 ! A35   A(11,10,27)           108.3579         estimate D2E/DX2                !
 ! A36   A(26,10,27)           107.5304         estimate D2E/DX2                !
 ! A37   A(10,11,12)           112.0699         estimate D2E/DX2                !
 ! A38   A(10,11,28)           108.3595         estimate D2E/DX2                !
 ! A39   A(10,11,29)           109.1776         estimate D2E/DX2                !
 ! A40   A(12,11,28)           110.5802         estimate D2E/DX2                !
 ! A41   A(12,11,29)           109.3533         estimate D2E/DX2                !
 ! A42   A(28,11,29)           107.1669         estimate D2E/DX2                !
 ! A43   A(11,12,13)           109.938          estimate D2E/DX2                !
 ! A44   A(11,12,15)           112.4653         estimate D2E/DX2                !
 ! A45   A(11,12,30)           108.4055         estimate D2E/DX2                !
 ! A46   A(13,12,15)           110.3605         estimate D2E/DX2                !
 ! A47   A(13,12,30)           107.1348         estimate D2E/DX2                !
 ! A48   A(15,12,30)           108.3599         estimate D2E/DX2                !
 ! A49   A(12,13,14)           111.4553         estimate D2E/DX2                !
 ! A50   A(12,13,31)           109.5102         estimate D2E/DX2                !
 ! A51   A(12,13,32)           110.4877         estimate D2E/DX2                !
 ! A52   A(14,13,31)           109.3151         estimate D2E/DX2                !
 ! A53   A(14,13,32)           108.8694         estimate D2E/DX2                !
 ! A54   A(31,13,32)           107.0959         estimate D2E/DX2                !
 ! A55   A(9,14,13)            108.578          estimate D2E/DX2                !
 ! A56   A(9,14,33)            110.8066         estimate D2E/DX2                !
 ! A57   A(9,14,34)            111.6519         estimate D2E/DX2                !
 ! A58   A(13,14,33)           108.9157         estimate D2E/DX2                !
 ! A59   A(13,14,34)           108.5845         estimate D2E/DX2                !
 ! A60   A(33,14,34)           108.2442         estimate D2E/DX2                !
 ! A61   A(12,15,16)           113.9796         estimate D2E/DX2                !
 ! A62   A(12,15,17)           109.2619         estimate D2E/DX2                !
 ! A63   A(12,15,35)           109.9026         estimate D2E/DX2                !
 ! A64   A(16,15,17)           107.7805         estimate D2E/DX2                !
 ! A65   A(16,15,35)           108.7899         estimate D2E/DX2                !
 ! A66   A(17,15,35)           106.8676         estimate D2E/DX2                !
 ! A67   A(15,16,36)           110.952          estimate D2E/DX2                !
 ! A68   A(15,16,37)           110.3403         estimate D2E/DX2                !
 ! A69   A(15,16,38)           111.8849         estimate D2E/DX2                !
 ! A70   A(36,16,37)           106.6702         estimate D2E/DX2                !
 ! A71   A(36,16,38)           108.7581         estimate D2E/DX2                !
 ! A72   A(37,16,38)           108.0508         estimate D2E/DX2                !
 ! A73   A(15,17,39)           107.9177         estimate D2E/DX2                !
 ! D1    D(18,1,2,3)           -77.8851         estimate D2E/DX2                !
 ! D2    D(18,1,2,7)           102.2862         estimate D2E/DX2                !
 ! D3    D(19,1,2,3)            44.5376         estimate D2E/DX2                !
 ! D4    D(19,1,2,7)          -135.291          estimate D2E/DX2                !
 ! D5    D(20,1,2,3)           162.8001         estimate D2E/DX2                !
 ! D6    D(20,1,2,7)           -17.0286         estimate D2E/DX2                !
 ! D7    D(1,2,3,4)           -178.7043         estimate D2E/DX2                !
 ! D8    D(1,2,3,9)             -0.5934         estimate D2E/DX2                !
 ! D9    D(7,2,3,4)              1.1216         estimate D2E/DX2                !
 ! D10   D(7,2,3,9)            179.2325         estimate D2E/DX2                !
 ! D11   D(1,2,7,6)            179.2836         estimate D2E/DX2                !
 ! D12   D(1,2,7,23)             0.5736         estimate D2E/DX2                !
 ! D13   D(3,2,7,6)             -0.5535         estimate D2E/DX2                !
 ! D14   D(3,2,7,23)          -179.2634         estimate D2E/DX2                !
 ! D15   D(2,3,4,5)             -3.6448         estimate D2E/DX2                !
 ! D16   D(2,3,4,21)           177.5257         estimate D2E/DX2                !
 ! D17   D(9,3,4,5)            178.0534         estimate D2E/DX2                !
 ! D18   D(9,3,4,21)            -0.7761         estimate D2E/DX2                !
 ! D19   D(2,3,9,10)           -85.817          estimate D2E/DX2                !
 ! D20   D(2,3,9,14)            53.2438         estimate D2E/DX2                !
 ! D21   D(4,3,9,10)            92.3329         estimate D2E/DX2                !
 ! D22   D(4,3,9,14)          -128.6063         estimate D2E/DX2                !
 ! D23   D(3,4,5,6)              5.4182         estimate D2E/DX2                !
 ! D24   D(3,4,5,8)            174.5772         estimate D2E/DX2                !
 ! D25   D(21,4,5,6)          -175.7658         estimate D2E/DX2                !
 ! D26   D(21,4,5,8)            -6.6068         estimate D2E/DX2                !
 ! D27   D(4,5,6,7)             -4.6811         estimate D2E/DX2                !
 ! D28   D(4,5,6,22)           175.2992         estimate D2E/DX2                !
 ! D29   D(8,5,6,7)           -173.8489         estimate D2E/DX2                !
 ! D30   D(8,5,6,22)             6.1315         estimate D2E/DX2                !
 ! D31   D(4,5,8,24)            30.2717         estimate D2E/DX2                !
 ! D32   D(4,5,8,25)           159.4593         estimate D2E/DX2                !
 ! D33   D(6,5,8,24)          -160.8074         estimate D2E/DX2                !
 ! D34   D(6,5,8,25)           -31.6199         estimate D2E/DX2                !
 ! D35   D(5,6,7,2)              2.3839         estimate D2E/DX2                !
 ! D36   D(5,6,7,23)          -178.8839         estimate D2E/DX2                !
 ! D37   D(22,6,7,2)          -177.5966         estimate D2E/DX2                !
 ! D38   D(22,6,7,23)            1.1355         estimate D2E/DX2                !
 ! D39   D(3,9,10,11)         -160.0636         estimate D2E/DX2                !
 ! D40   D(3,9,10,26)           78.9582         estimate D2E/DX2                !
 ! D41   D(3,9,10,27)          -40.605          estimate D2E/DX2                !
 ! D42   D(14,9,10,11)          59.6361         estimate D2E/DX2                !
 ! D43   D(14,9,10,26)         -61.3421         estimate D2E/DX2                !
 ! D44   D(14,9,10,27)         179.0947         estimate D2E/DX2                !
 ! D45   D(3,9,14,13)          160.6938         estimate D2E/DX2                !
 ! D46   D(3,9,14,33)           41.1177         estimate D2E/DX2                !
 ! D47   D(3,9,14,34)          -79.6249         estimate D2E/DX2                !
 ! D48   D(10,9,14,13)         -60.7908         estimate D2E/DX2                !
 ! D49   D(10,9,14,33)         179.6331         estimate D2E/DX2                !
 ! D50   D(10,9,14,34)          58.8904         estimate D2E/DX2                !
 ! D51   D(9,10,11,12)         -53.9158         estimate D2E/DX2                !
 ! D52   D(9,10,11,28)        -176.2061         estimate D2E/DX2                !
 ! D53   D(9,10,11,29)          67.3909         estimate D2E/DX2                !
 ! D54   D(26,10,11,12)         67.5898         estimate D2E/DX2                !
 ! D55   D(26,10,11,28)        -54.7005         estimate D2E/DX2                !
 ! D56   D(26,10,11,29)       -171.1035         estimate D2E/DX2                !
 ! D57   D(27,10,11,12)       -175.191          estimate D2E/DX2                !
 ! D58   D(27,10,11,28)         62.5187         estimate D2E/DX2                !
 ! D59   D(27,10,11,29)        -53.8843         estimate D2E/DX2                !
 ! D60   D(10,11,12,13)         52.2162         estimate D2E/DX2                !
 ! D61   D(10,11,12,15)        175.6174         estimate D2E/DX2                !
 ! D62   D(10,11,12,30)        -64.5923         estimate D2E/DX2                !
 ! D63   D(28,11,12,13)        173.233          estimate D2E/DX2                !
 ! D64   D(28,11,12,15)        -63.3657         estimate D2E/DX2                !
 ! D65   D(28,11,12,30)         56.4245         estimate D2E/DX2                !
 ! D66   D(29,11,12,13)        -68.9893         estimate D2E/DX2                !
 ! D67   D(29,11,12,15)         54.4119         estimate D2E/DX2                !
 ! D68   D(29,11,12,30)        174.2022         estimate D2E/DX2                !
 ! D69   D(11,12,13,14)        -53.2505         estimate D2E/DX2                !
 ! D70   D(11,12,13,31)         67.8332         estimate D2E/DX2                !
 ! D71   D(11,12,13,32)       -174.4355         estimate D2E/DX2                !
 ! D72   D(15,12,13,14)       -177.875          estimate D2E/DX2                !
 ! D73   D(15,12,13,31)        -56.7913         estimate D2E/DX2                !
 ! D74   D(15,12,13,32)         60.9401         estimate D2E/DX2                !
 ! D75   D(30,12,13,14)         64.3503         estimate D2E/DX2                !
 ! D76   D(30,12,13,31)       -174.566          estimate D2E/DX2                !
 ! D77   D(30,12,13,32)        -56.8347         estimate D2E/DX2                !
 ! D78   D(11,12,15,16)         57.2128         estimate D2E/DX2                !
 ! D79   D(11,12,15,17)        177.8414         estimate D2E/DX2                !
 ! D80   D(11,12,15,35)        -65.1961         estimate D2E/DX2                !
 ! D81   D(13,12,15,16)       -179.6221         estimate D2E/DX2                !
 ! D82   D(13,12,15,17)        -58.9935         estimate D2E/DX2                !
 ! D83   D(13,12,15,35)         57.969          estimate D2E/DX2                !
 ! D84   D(30,12,15,16)        -62.604          estimate D2E/DX2                !
 ! D85   D(30,12,15,17)         58.0247         estimate D2E/DX2                !
 ! D86   D(30,12,15,35)        174.9872         estimate D2E/DX2                !
 ! D87   D(12,13,14,9)          56.0319         estimate D2E/DX2                !
 ! D88   D(12,13,14,33)        176.7833         estimate D2E/DX2                !
 ! D89   D(12,13,14,34)        -65.5473         estimate D2E/DX2                !
 ! D90   D(31,13,14,9)         -65.1657         estimate D2E/DX2                !
 ! D91   D(31,13,14,33)         55.5858         estimate D2E/DX2                !
 ! D92   D(31,13,14,34)        173.2551         estimate D2E/DX2                !
 ! D93   D(32,13,14,9)         178.1555         estimate D2E/DX2                !
 ! D94   D(32,13,14,33)        -61.093          estimate D2E/DX2                !
 ! D95   D(32,13,14,34)         56.5763         estimate D2E/DX2                !
 ! D96   D(12,15,16,36)         54.4799         estimate D2E/DX2                !
 ! D97   D(12,15,16,37)        172.4848         estimate D2E/DX2                !
 ! D98   D(12,15,16,38)        -67.181          estimate D2E/DX2                !
 ! D99   D(17,15,16,36)        -66.9733         estimate D2E/DX2                !
 ! D100  D(17,15,16,37)         51.0315         estimate D2E/DX2                !
 ! D101  D(17,15,16,38)        171.3657         estimate D2E/DX2                !
 ! D102  D(35,15,16,36)        177.497          estimate D2E/DX2                !
 ! D103  D(35,15,16,37)        -64.4981         estimate D2E/DX2                !
 ! D104  D(35,15,16,38)         55.8361         estimate D2E/DX2                !
 ! D105  D(12,15,17,39)        -65.2594         estimate D2E/DX2                !
 ! D106  D(16,15,17,39)         59.0853         estimate D2E/DX2                !
 ! D107  D(35,15,17,39)        175.8738         estimate D2E/DX2                !
 --------------------------------------------------------------------------------
 Trust Radius=3.00D-01 FncErr=1.00D-07 GrdErr=1.00D-06 EigMax=2.50D+02 EigMin=1.00D-04
 Number of steps in this run=    230 maximum allowed number of steps=    234.
 GradGradGradGradGradGradGradGradGradGradGradGradGradGradGradGradGradGrad

                          Input orientation:                          
 ---------------------------------------------------------------------
 Center     Atomic      Atomic             Coordinates (Angstroms)
 Number     Number       Type             X           Y           Z
 ---------------------------------------------------------------------
      1          6           0       -2.946000    0.042000    0.025000
      2          6           0       -1.447720    0.149640   -0.007690
      3          6           0       -0.585370   -0.962380   -0.049990
      4          6           0        0.807000   -0.726650   -0.049490
      5          6           0        1.354010    0.558330   -0.083720
      6          6           0        0.489070    1.642730   -0.003910
      7          6           0       -0.892750    1.443930    0.009040
      8          7           0        2.738220    0.745080    0.032350
      9          7           0       -0.976800   -2.308370   -0.056060
     10          6           0       -1.192690   -2.863400    1.281580
     11          6           0       -1.119570   -4.390400    1.205120
     12          6           0       -2.081890   -4.963630    0.148040
     13          6           0       -1.857260   -4.256660   -1.207600
     14          6           0       -1.942030   -2.736730   -1.066450
     15          6           0       -1.938510   -6.491590   -0.013030
     16          6           0       -2.153950   -7.273710    1.277980
     17          8           0       -2.893490   -6.956590   -0.969640
     18          1           0       -3.331330   -0.179870   -0.974550
     19          1           0       -3.273580   -0.724710    0.731990
     20          1           0       -3.405800    0.979940    0.356480
     21          1           0        1.471830   -1.587620   -0.040760
     22          1           0        0.879460    2.654890    0.049460
     23          1           0       -1.541040    2.316670    0.053740
     24          1           0        3.276660   -0.031090   -0.340530
     25          1           0        3.056330    1.639590   -0.326090
     26          1           0       -2.168550   -2.556240    1.676570
     27          1           0       -0.426560   -2.515530    1.986100
     28          1           0       -1.349580   -4.796870    2.195930
     29          1           0       -0.091850   -4.690530    0.962350
     30          1           0       -3.112380   -4.743660    0.461180
     31          1           0       -0.870870   -4.530040   -1.604700
     32          1           0       -2.602420   -4.586710   -1.940500
     33          1           0       -1.720200   -2.276640   -2.036910
     34          1           0       -2.965800   -2.468930   -0.786220
     35          1           0       -0.946270   -6.733350   -0.410850
     36          1           0       -3.119940   -7.024380    1.730470
     37          1           0       -2.171340   -8.349900    1.072910
     38          1           0       -1.363350   -7.080690    2.008190
     39          1           0       -3.781490   -6.809190   -0.601830
 ---------------------------------------------------------------------
                    Distance matrix (angstroms):
                    1          2          3          4          5
     1  C    0.000000
     2  C    1.502497   0.000000
     3  C    2.566511   1.407844   0.000000
     4  C    3.831629   2.419379   1.412184   0.000000
     5  C    4.332263   2.832402   2.464729   1.396984   0.000000
     6  C    3.789839   2.445504   2.818358   2.391050   1.389393
     7  C    2.486262   1.408353   2.426581   2.757534   2.416779
     8  N    5.727542   4.228267   3.737439   2.429464   1.401565
     9  N    3.067337   2.503182   1.401764   2.384077   3.694781
    10  C    3.618624   3.287198   2.399123   3.214997   4.478612
    11  C    4.937074   4.710685   3.689443   4.325365   5.680637
    12  C    5.081157   5.154799   4.276539   5.131930   6.507777
    13  C    4.602514   4.585083   3.716187   4.571703   5.895718
    14  C    3.149692   3.113912   2.453984   3.554124   4.763093
    15  C    6.610921   6.659342   5.692497   6.385428   7.781199
    16  C    7.464376   7.566891   6.637532   7.307078   8.689123
    17  O    7.069111   7.315333   6.488739   7.304276   8.677565
    18  H    1.093986   2.142751   3.001238   4.275568   4.826068
    19  H    1.093155   2.155314   2.809707   4.154738   4.870951
    20  H    1.095914   2.157799   3.448572   4.563436   4.798679
    21  H    4.709268   3.397490   2.150135   1.087816   2.149611
    22  H    4.632703   3.419841   3.903877   3.383763   2.153717
    23  H    2.673736   2.169908   3.417050   3.845224   3.389981
    24  H    6.233815   4.739537   3.983339   2.582195   2.027301
    25  H    6.221216   4.754766   4.484246   3.276444   2.031197
    26  H    3.175368   3.267738   2.833347   3.896226   5.020717
    27  H    4.090776   3.481537   2.565767   2.977480   4.111350
    28  H    5.538606   5.416044   4.509045   5.124396   6.417505
    29  H    5.605501   5.119239   3.894547   4.188567   5.543943
    30  H    4.808376   5.189925   4.576587   5.635485   6.953895
    31  H    5.278791   4.978213   3.902157   4.438435   5.758036
    32  H    5.040456   5.244244   4.558321   5.486358   6.750734
    33  H    3.336188   3.174715   2.638744   3.569180   4.615493
    34  H    2.638795   3.125314   2.911730   4.220466   5.321519
    35  H    7.077729   6.912998   5.793493   6.267773   7.652901
    36  H    7.271355   7.568625   6.807490   7.632203   8.989160
    37  H    8.492479   8.598459   7.638826   8.261007   9.649997
    38  H    7.561120   7.506568   6.501929   7.022698   8.373456
    39  H    6.930351   7.363749   6.686172   7.639150   8.995674
                    6          7          8          9         10
     6  C    0.000000
     7  C    1.396107   0.000000
     8  N    2.421934   3.697685   0.000000
     9  N    4.214580   3.753806   4.809651   0.000000
    10  C    4.978555   4.501379   5.480306   1.464223   0.000000
    11  C    6.359885   5.959988   6.529249   2.438403   1.530661
    12  C    7.090622   6.518451   7.472363   2.883277   2.546872
    13  C    6.461961   5.908233   6.904587   2.428392   2.928966
    14  C    5.120440   4.442475   5.935916   1.461523   2.467955
    15  C    8.488839   8.004160   8.616453   4.292560   3.923777
    16  C    9.387848   8.899330   9.475543   5.274462   4.513853
    17  O    9.290998   8.690772   9.593532   5.110213   4.971410
    18  H    4.342749   3.090445   6.221641   3.304232   4.106731
    19  H    4.505980   3.300607   6.228284   2.899000   3.034163
    20  H    3.967264   2.579035   6.157045   4.108919   4.530445
    21  H    3.376735   3.844999   2.655292   2.552548   3.236644
    22  H    1.086149   2.146808   2.665081   5.300074   6.021914
    23  H    2.139828   1.088096   4.558774   4.660624   5.334985
    24  H    3.268890   4.436425   1.015577   4.833099   5.534285
    25  H    2.587399   3.968101   1.014801   5.650260   6.396538
    26  H    5.245789   4.517708   6.138287   2.117478   1.096662
    27  H    4.699962   4.450104   4.946165   2.125111   1.097414
    28  H    7.048998   6.628632   7.218338   3.376841   2.144518
    29  H    6.432831   6.259540   6.198391   2.737696   2.156887
    30  H    7.346613   6.589193   8.033659   3.280073   2.809563
    31  H    6.520357   6.188130   6.597905   2.710226   3.348413
    32  H    7.218976   6.564472   7.800164   3.374105   3.916495
    33  H    4.937147   4.325879   5.769761   2.115991   3.411001
    34  H    5.427143   4.498939   6.598163   2.124861   2.752330
    35  H    8.507909   8.188228   8.348581   4.439286   4.231023
    36  H    9.547346   8.923899   9.877558   5.479552   4.607554
    37  H   10.396633   9.934069  10.387743   6.261117   5.577005
    38  H    9.142104   8.768535   9.053701   5.213980   4.282829
    39  H    9.488422   8.765385   9.998790   5.331185   5.081179
                   11         12         13         14         15
    11  C    0.000000
    12  C    1.540153   0.000000
    13  C    2.526518   1.545324   0.000000
    14  C    2.927643   2.540400   1.528822   0.000000
    15  C    2.563114   1.543102   2.535451   3.899831   0.000000
    16  C    3.064103   2.572630   3.920296   5.111306   1.524740
    17  O    3.802855   2.424828   2.901727   4.326877   1.429446
    18  H    5.231769   5.070076   4.341361   2.911380   6.534698
    19  H    4.277954   4.441798   4.271141   3.009258   5.966102
    20  H    5.898100   6.092800   5.680343   4.240400   7.623204
    21  H    4.015364   4.905305   4.423588   3.745255   5.973283
    22  H    7.414026   8.174421   7.539188   6.186730   9.570943
    23  H    6.818218   7.300971   6.700719   5.191577   8.817476
    24  H    6.381180   7.299501   6.705549   5.923021   8.309231
    25  H    7.492898   8.380252   7.725684   6.684603   9.547907
    26  H    2.164894   2.852970   3.362554   2.758269   4.288898
    27  H    2.146003   3.480198   3.908728   3.415207   4.700167
    28  H    1.095366   2.181270   3.483329   3.903626   2.845772
    29  H    1.097827   2.167474   2.830830   3.369945   2.757777
    30  H    2.156277   1.099251   2.144137   2.780493   2.158264
    31  H    2.824259   2.174090   1.097903   2.157095   2.742434
    32  H    3.483146   2.185182   1.096056   2.150001   2.790069
    33  H    3.916567   3.482060   2.151051   1.096669   4.680764
    34  H    3.326567   2.806718   2.145321   1.094692   4.223143
    35  H    2.851457   2.175753   2.756575   4.170650   1.096015
    36  H    3.348929   2.797914   4.229290   5.253016   2.172426
    37  H    4.098944   3.511440   4.696167   6.011416   2.164900
    38  H    2.818157   2.908333   4.308178   5.353342   2.182471
    39  H    4.025100   2.618594   3.253464   4.492707   1.960645
                   16         17         18         19         20
    16  C    0.000000
    17  O    2.387317   0.000000
    18  H    7.535428   6.790851   0.000000
    19  H    6.666414   6.471193   1.792335   0.000000
    20  H    8.398752   8.062851   1.767016   1.750520   0.000000
    21  H    6.871461   6.981739   5.091569   4.884739   5.526431
    22  H   10.454087  10.375657   5.178341   5.397711   4.611201
    23  H    9.687611   9.427077   3.239634   3.565349   2.314266
    24  H    9.196012   9.296724   6.640004   6.673609   6.794356
    25  H   10.448300  10.474198   6.673315   6.839387   6.531475
    26  H    4.734301   5.185658   3.745348   2.338338   3.972152
    27  H    5.111320   5.877513   4.760089   3.589617   4.873381
    28  H    2.761228   4.131450   5.941041   4.735756   6.401808
    29  H    3.320346   4.088618   5.881485   5.089617   6.595724
    30  H    2.826111   2.644280   4.789305   4.031288   5.732072
    31  H    4.181371   3.222179   5.037354   5.070865   6.374322
    32  H    4.216599   2.577522   4.569968   4.744228   6.075288
    33  H    6.012266   4.941417   2.849701   3.533877   4.378913
    34  H    5.292063   4.491989   2.325699   2.332808   3.659791
    35  H    2.145373   2.038075   6.996740   6.544174   8.132215
    36  H    1.095468   2.710437   7.362685   6.380157   8.126420
    37  H    1.095692   2.575815   8.502180   7.711983   9.438383
    38  H    1.093395   3.350254   7.771165   6.758413   8.477824
    39  H    2.529496   0.972397   6.655032   6.249636   7.856847
                   21         22         23         24         25
    21  H    0.000000
    22  H    4.284616   0.000000
    23  H    4.932524   2.444020   0.000000
    24  H    2.402095   3.621208   5.373794   0.000000
    25  H    3.606513   2.431180   4.662458   1.685208   0.000000
    26  H    4.140026   6.252498   5.174224   6.332092   6.993926
    27  H    2.927979   5.673580   5.322240   5.029860   5.894215
    28  H    4.823113   8.068747   7.431560   7.109739   8.197600
    29  H    3.616542   7.465387   7.212945   5.895315   7.186204
    30  H    5.588158   8.416819   7.244541   7.979404   8.911715
    31  H    4.073326   7.577804   7.076510   6.248254   7.424424
    32  H    5.403986   8.277935   7.263620   7.607704   8.567064
    33  H    3.827325   5.952408   5.049892   5.734877   6.409290
    34  H    4.585300   6.460489   5.063343   6.716399   7.304636
    35  H    5.697606   9.575188   9.081435   7.922018   9.280847
    36  H    7.333483  10.607038   9.620788   9.701115  10.836980
    37  H    7.761532  11.465611  10.733671  10.043959  11.361146
    38  H    6.512316  10.180783   9.600095   8.760310  10.051155
    39  H    7.428120  10.569647   9.419698   9.789198  10.872612
                   26         27         28         29         30
    26  H    0.000000
    27  H    1.769744   0.000000
    28  H    2.441489   2.469920   0.000000
    29  H    3.062350   2.427081   1.764911   0.000000
    30  H    2.674471   3.808356   2.473793   3.062286   0.000000
    31  H    4.043092   4.141196   3.839941   2.687448   3.055791
    32  H    4.170641   4.943920   4.327104   3.839307   2.460236
    33  H    3.750884   4.232633   4.940228   4.180185   3.776878
    34  H    2.590090   3.759743   4.113963   4.031450   2.598440
    35  H    4.826960   4.879085   3.272295   2.605537   3.067790
    36  H    4.568624   5.258267   2.883163   3.899512   2.610141
    37  H    5.825024   6.157763   3.815820   4.210403   3.776869
    38  H    4.607490   4.660338   2.291565   2.902302   3.303643
    39  H    5.087265   6.032284   4.217947   4.533081   2.417460
                   31         32         33         34         35
    31  H    0.000000
    32  H    1.764721   0.000000
    33  H    2.446626   2.474678   0.000000
    34  H    3.050707   2.439139   1.775590   0.000000
    35  H    2.507098   3.112993   4.806798   4.733358   0.000000
    36  H    4.733224   4.436900   6.220407   5.206689   3.065092
    37  H    4.842742   4.840255   6.838055   6.218789   2.513081
    38  H    4.449868   4.831913   6.290395   5.625380   2.479184
    39  H    3.830402   2.849853   5.181928   4.420091   2.842657
                   36         37         38         39
    36  H    0.000000
    37  H    1.757621   0.000000
    38  H    1.779300   1.771579   0.000000
    39  H    2.433840   2.787674   3.568377   0.000000
 Stoichiometry    C14H22N2O
 Framework group  C1[X(C14H22N2O)]
 Deg. of freedom   111
 Full point group                 C1      NOp   1
 Largest Abelian subgroup         C1      NOp   1
 Largest concise Abelian subgroup C1      NOp   1
                         Standard orientation:                         
 ---------------------------------------------------------------------
 Center     Atomic      Atomic             Coordinates (Angstroms)
 Number     Number       Type             X           Y           Z
 ---------------------------------------------------------------------
      1          6           0        1.661756    2.629806    0.487192
      2          6           0        2.298449    1.293618    0.228888
      3          6           0        1.569204    0.119325   -0.038068
      4          6           0        2.286979   -1.080508   -0.236718
      5          6           0        3.683000   -1.130073   -0.251985
      6          6           0        4.384780    0.030396    0.050058
      7          6           0        3.704990    1.231035    0.263287
      8          7           0        4.349816   -2.359736   -0.339571
      9          7           0        0.172631    0.011441   -0.091800
     10          6           0       -0.449507   -0.217860    1.213693
     11          6           0       -1.847642   -0.804226    1.003184
     12          6           0       -2.705726    0.067237    0.067066
     13          6           0       -1.938234    0.344628   -1.245197
     14          6           0       -0.552157    0.927912   -0.969760
     15          6           0       -4.077954   -0.569316   -0.237816
     16          6           0       -4.911039   -0.870040    1.003299
     17          8           0       -4.834364    0.315512   -1.067417
     18          1           0        1.336832    3.082468   -0.454258
     19          1           0        0.814646    2.540101    1.172280
     20          1           0        2.366564    3.322070    0.961577
     21          1           0        1.720527   -1.994354   -0.402131
     22          1           0        5.468331    0.014541    0.123449
     23          1           0        4.287277    2.124389    0.479654
     24          1           0        3.824992   -3.060737   -0.853919
     25          1           0        5.305907   -2.277863   -0.669734
     26          1           0       -0.519399    0.718453    1.780349
     27          1           0        0.135071   -0.925458    1.815267
     28          1           0       -2.329183   -0.907914    1.981547
     29          1           0       -1.755691   -1.812525    0.578800
     30          1           0       -2.874921    1.037797    0.554652
     31          1           0       -1.832994   -0.589232   -1.812842
     32          1           0       -2.498111    1.044108   -1.876548
     33          1           0       -0.023880    1.054261   -1.922464
     34          1           0       -0.673632    1.914733   -0.511744
     35          1           0       -3.941084   -1.497410   -0.804523
     36          1           0       -5.032549    0.026940    1.620318
     37          1           0       -5.918023   -1.193331    0.716931
     38          1           0       -4.462815   -1.658666    1.613772
     39          1           0       -5.021481    1.119993   -0.554238
 ---------------------------------------------------------------------
 Rotational constants (GHZ):           1.0860978           0.2073073           0.1913312
 Standard basis: 6-31G(d) (6D, 7F)
 There are   299 symmetry adapted cartesian basis functions of A   symmetry.
 There are   299 symmetry adapted basis functions of A   symmetry.
   299 basis functions,   564 primitive gaussians,   299 cartesian basis functions
    64 alpha electrons       64 beta electrons
       nuclear repulsion energy      1233.7246512854 Hartrees.
 NAtoms=   39 NActive=   39 NUniq=   39 SFac= 1.00D+00 NAtFMM=   60 NAOKFM=F Big=F
 Integral buffers will be    131072 words long.
 Raffenetti 2 integral format.
 Two-electron integral symmetry is turned on.
 Nuclear repulsion after empirical dispersion term =     1233.6479119172 Hartrees.
 One-electron integrals computed using PRISM.
 NBasis=   299 RedAO= T EigKep=  3.75D-04  NBF=   299
 NBsUse=   299 1.00D-06 EigRej= -1.00D+00 NBFU=   299
 ExpMin= 1.61D-01 ExpMax= 5.48D+03 ExpMxC= 8.25D+02 IAcc=3 IRadAn=         5 AccDes= 0.00D+00
 Harris functional with IExCor=  402 and IRadAn=       5 diagonalized for initial guess.
 HarFok:  IExCor=  402 AccDes= 0.00D+00 IRadAn=         5 IDoV= 1 UseB2=F ITyADJ=14
 ICtDFT=  3500011 ScaDFX=  1.000000  1.000000  1.000000  1.000000
 FoFCou: FMM=F IPFlag=           0 FMFlag=      100000 FMFlg1=           0
         NFxFlg=           0 DoJE=T BraDBF=F KetDBF=T FulRan=T
         wScrn=  0.000000 ICntrl=       500 IOpCl=  0 I1Cent=   200000004 NGrid=           0
         NMat0=    1 NMatS0=      1 NMatT0=    0 NMatD0=    1 NMtDS0=    0 NMtDT0=    0
 Petite list used in FoFCou.
 Requested convergence on RMS density matrix=1.00D-08 within  32 cycles.
 Requested convergence on MAX density matrix=1.00D-06.
 Requested convergence on             energy=1.00D-06.
 No special actions if energy rises.
 Integral accuracy reduced to 1.0D-05 until final iterations.
 Initial convergence to 1.0D-05 achieved.  Increase integral accuracy.
 SCF Done:  E(RB3LYP) =  -731.524801391     A.U. after   14 cycles
            NFock= 14  Conv=0.47D-08     -V/T= 2.0095
 QCSCF skips out because SCF is already converged.

 **********************************************************************

            Population analysis using the SCF density.

 **********************************************************************

 Orbital symmetries:
       Occupied  (A) (A) (A) (A) (A) (A) (A) (A) (A) (A) (A) (A)
                 (A) (A) (A) (A) (A) (A) (A) (A) (A) (A) (A) (A)
                 (A) (A) (A) (A) (A) (A) (A) (A) (A) (A) (A) (A)
                 (A) (A) (A) (A) (A) (A) (A) (A) (A) (A) (A) (A)
                 (A) (A) (A) (A) (A) (A) (A) (A) (A) (A) (A) (A)
                 (A) (A) (A) (A)
       Virtual   (A) (A) (A) (A) (A) (A) (A) (A) (A) (A) (A) (A)
                 (A) (A) (A) (A) (A) (A) (A) (A) (A) (A) (A) (A)
                 (A) (A) (A) (A) (A) (A) (A) (A) (A) (A) (A) (A)
                 (A) (A) (A) (A) (A) (A) (A) (A) (A) (A) (A) (A)
                 (A) (A) (A) (A) (A) (A) (A) (A) (A) (A) (A) (A)
                 (A) (A) (A) (A) (A) (A) (A) (A) (A) (A) (A) (A)
                 (A) (A) (A) (A) (A) (A) (A) (A) (A) (A) (A) (A)
                 (A) (A) (A) (A) (A) (A) (A) (A) (A) (A) (A) (A)
                 (A) (A) (A) (A) (A) (A) (A) (A) (A) (A) (A) (A)
                 (A) (A) (A) (A) (A) (A) (A) (A) (A) (A) (A) (A)
                 (A) (A) (A) (A) (A) (A) (A) (A) (A) (A) (A) (A)
                 (A) (A) (A) (A) (A) (A) (A) (A) (A) (A) (A) (A)
                 (A) (A) (A) (A) (A) (A) (A) (A) (A) (A) (A) (A)
                 (A) (A) (A) (A) (A) (A) (A) (A) (A) (A) (A) (A)
                 (A) (A) (A) (A) (A) (A) (A) (A) (A) (A) (A) (A)
                 (A) (A) (A) (A) (A) (A) (A) (A) (A) (A) (A) (A)
                 (A) (A) (A) (A) (A) (A) (A) (A) (A) (A) (A) (A)
                 (A) (A) (A) (A) (A) (A) (A) (A) (A) (A) (A) (A)
                 (A) (A) (A) (A) (A) (A) (A) (A) (A) (A) (A) (A)
                 (A) (A) (A) (A) (A) (A) (A)
 The electronic state is 1-A.
 Alpha  occ. eigenvalues --  -19.13472 -14.33227 -14.31552 -10.22966 -10.21226
 Alpha  occ. eigenvalues --  -10.20451 -10.20233 -10.20036 -10.18377 -10.17740
 Alpha  occ. eigenvalues --  -10.17560 -10.17485 -10.17323 -10.17223 -10.16967
 Alpha  occ. eigenvalues --  -10.16958 -10.16613  -1.01001  -0.92866  -0.90725
 Alpha  occ. eigenvalues --   -0.82635  -0.79784  -0.75178  -0.74592  -0.74046
 Alpha  occ. eigenvalues --   -0.71501  -0.66958  -0.64495  -0.62060  -0.60124
 Alpha  occ. eigenvalues --   -0.58927  -0.57260  -0.55000  -0.51322  -0.50393
 Alpha  occ. eigenvalues --   -0.48261  -0.46946  -0.45646  -0.45441  -0.44122
 Alpha  occ. eigenvalues --   -0.43912  -0.43467  -0.42016  -0.41502  -0.40806
 Alpha  occ. eigenvalues --   -0.40570  -0.40326  -0.38388  -0.37726  -0.36958
 Alpha  occ. eigenvalues --   -0.36563  -0.36062  -0.34843  -0.34524  -0.33951
 Alpha  occ. eigenvalues --   -0.33053  -0.32255  -0.30854  -0.29768  -0.28732
 Alpha  occ. eigenvalues --   -0.25674  -0.23453  -0.19918  -0.18942
 Alpha virt. eigenvalues --    0.01007   0.02723   0.07361   0.08585   0.09336
 Alpha virt. eigenvalues --    0.10004   0.11524   0.12314   0.12909   0.13377
 Alpha virt. eigenvalues --    0.13851   0.14703   0.15174   0.15832   0.16431
 Alpha virt. eigenvalues --    0.16883   0.17014   0.17475   0.18273   0.18503
 Alpha virt. eigenvalues --    0.19049   0.19803   0.20283   0.20400   0.21717
 Alpha virt. eigenvalues --    0.22922   0.23668   0.24668   0.25277   0.25416
 Alpha virt. eigenvalues --    0.27443   0.28581   0.29153   0.29943   0.30297
 Alpha virt. eigenvalues --    0.30824   0.31764   0.33574   0.35497   0.39097
 Alpha virt. eigenvalues --    0.41707   0.48923   0.50430   0.51386   0.52014
 Alpha virt. eigenvalues --    0.52516   0.53524   0.54255   0.55629   0.56165
 Alpha virt. eigenvalues --    0.56983   0.57453   0.57674   0.59302   0.59530
 Alpha virt. eigenvalues --    0.60909   0.61600   0.62665   0.62764   0.63496
 Alpha virt. eigenvalues --    0.64511   0.64917   0.65443   0.66185   0.67140
 Alpha virt. eigenvalues --    0.70095   0.70418   0.71091   0.73101   0.74442
 Alpha virt. eigenvalues --    0.74780   0.76545   0.77674   0.78474   0.79230
 Alpha virt. eigenvalues --    0.80867   0.82504   0.83023   0.83687   0.84062
 Alpha virt. eigenvalues --    0.84594   0.85417   0.86346   0.86910   0.87271
 Alpha virt. eigenvalues --    0.88012   0.88610   0.89130   0.89681   0.90319
 Alpha virt. eigenvalues --    0.90338   0.91524   0.92025   0.92397   0.93385
 Alpha virt. eigenvalues --    0.94712   0.95267   0.95513   0.96389   0.96682
 Alpha virt. eigenvalues --    0.97295   0.99682   1.00534   1.01170   1.01863
 Alpha virt. eigenvalues --    1.03065   1.04032   1.05172   1.06773   1.08366
 Alpha virt. eigenvalues --    1.09337   1.11337   1.16842   1.17919   1.18048
 Alpha virt. eigenvalues --    1.21379   1.24123   1.25905   1.27029   1.28712
 Alpha virt. eigenvalues --    1.29356   1.31616   1.34226   1.35871   1.36853
 Alpha virt. eigenvalues --    1.39802   1.42884   1.43652   1.45426   1.47085
 Alpha virt. eigenvalues --    1.49614   1.51254   1.51865   1.53249   1.56032
 Alpha virt. eigenvalues --    1.58581   1.60172   1.61577   1.68048   1.69943
 Alpha virt. eigenvalues --    1.73124   1.76285   1.77077   1.79071   1.80246
 Alpha virt. eigenvalues --    1.80747   1.82230   1.82865   1.85633   1.87280
 Alpha virt. eigenvalues --    1.88710   1.89406   1.90729   1.91359   1.92657
 Alpha virt. eigenvalues --    1.93632   1.95123   1.96484   1.97803   1.98573
 Alpha virt. eigenvalues --    1.99684   2.00381   2.01983   2.02735   2.04051
 Alpha virt. eigenvalues --    2.04956   2.05082   2.08151   2.10161   2.11079
 Alpha virt. eigenvalues --    2.12563   2.12903   2.15584   2.18142   2.19496
 Alpha virt. eigenvalues --    2.20203   2.22078   2.22601   2.25574   2.26813
 Alpha virt. eigenvalues --    2.27959   2.28769   2.31759   2.32334   2.33252
 Alpha virt. eigenvalues --    2.34219   2.36114   2.36907   2.39693   2.41465
 Alpha virt. eigenvalues --    2.43102   2.44740   2.46433   2.47370   2.50751
 Alpha virt. eigenvalues --    2.52923   2.55236   2.56728   2.58677   2.60836
 Alpha virt. eigenvalues --    2.61294   2.62860   2.66474   2.68701   2.73820
 Alpha virt. eigenvalues --    2.74728   2.78571   2.81594   2.83297   2.84372
 Alpha virt. eigenvalues --    2.85666   2.90035   2.91811   2.93727   2.95620
 Alpha virt. eigenvalues --    3.08456   3.20054   3.43655   3.80867   3.83913
 Alpha virt. eigenvalues --    4.10766   4.13037   4.15279   4.17580   4.19607
 Alpha virt. eigenvalues --    4.25212   4.27832   4.30912   4.41672   4.45917
 Alpha virt. eigenvalues --    4.47310   4.50312   4.56434   4.65759   4.78441
          Condensed to atoms (all electrons):
               1          2          3          4          5          6
     1  C    5.259730   0.340550  -0.065683   0.009460   0.000011   0.008773
     2  C    0.340550   4.839159   0.491264  -0.059006  -0.032929  -0.032738
     3  C   -0.065683   0.491264   4.686359   0.518504  -0.004105  -0.044679
     4  C    0.009460  -0.059006   0.518504   5.161840   0.486554  -0.051171
     5  C    0.000011  -0.032929  -0.004105   0.486554   4.561757   0.541757
     6  C    0.008773  -0.032738  -0.044679  -0.051171   0.541757   4.998427
     7  C   -0.072869   0.500072   0.016365  -0.059453  -0.008152   0.513233
     8  N    0.000003   0.001054   0.002867  -0.056609   0.287995  -0.069323
     9  N   -0.008920  -0.083370   0.287712  -0.085980   0.006676   0.000168
    10  C   -0.000815  -0.001713  -0.039890  -0.007059  -0.000170   0.000008
    11  C    0.000023  -0.000049   0.003909   0.000088  -0.000007  -0.000000
    12  C    0.000021  -0.000069   0.000601  -0.000015  -0.000001   0.000000
    13  C    0.000054   0.000279   0.003172  -0.000272   0.000001  -0.000000
    14  C   -0.000037  -0.011176  -0.029170   0.003210  -0.000233   0.000024
    15  C   -0.000000   0.000000  -0.000000  -0.000000   0.000000  -0.000000
    16  C    0.000000  -0.000000   0.000000  -0.000000  -0.000000   0.000000
    17  O    0.000000   0.000000   0.000000  -0.000000  -0.000000   0.000000
    18  H    0.359142  -0.027025  -0.003316  -0.000079  -0.000001  -0.000140
    19  H    0.359551  -0.028423  -0.003903  -0.000044   0.000050  -0.000258
    20  H    0.360852  -0.027729   0.003249  -0.000183   0.000024   0.000251
    21  H   -0.000178   0.006953  -0.032297   0.331245  -0.048079   0.006072
    22  H   -0.000221   0.003932   0.000964   0.005224  -0.046188   0.344917
    23  H   -0.011321  -0.036367   0.004207   0.000731   0.003792  -0.043408
    24  H   -0.000000  -0.000034  -0.000071  -0.009371  -0.022871   0.006039
    25  H   -0.000000  -0.000011  -0.000091   0.005288  -0.022293  -0.009689
    26  H   -0.002332   0.004958  -0.002848   0.000275   0.000050  -0.000004
    27  H    0.000216  -0.000712   0.002171   0.003851  -0.000341   0.000001
    28  H   -0.000000   0.000008  -0.000066  -0.000018   0.000000   0.000000
    29  H   -0.000005   0.000014  -0.000545   0.000126   0.000006   0.000000
    30  H   -0.000030   0.000005  -0.000126   0.000003   0.000000  -0.000000
    31  H   -0.000006   0.000002  -0.000465   0.000066   0.000003   0.000000
    32  H    0.000001   0.000002  -0.000086  -0.000001   0.000000   0.000000
    33  H    0.000096   0.000471   0.002975   0.000868  -0.000062  -0.000018
    34  H   -0.002530   0.002032  -0.002947  -0.000061   0.000024   0.000001
    35  H   -0.000000  -0.000000  -0.000001   0.000000  -0.000000  -0.000000
    36  H   -0.000000   0.000000  -0.000000  -0.000000   0.000000  -0.000000
    37  H    0.000000   0.000000  -0.000000   0.000000   0.000000  -0.000000
    38  H   -0.000000   0.000000   0.000000  -0.000000   0.000000  -0.000000
    39  H   -0.000000   0.000000  -0.000000   0.000000   0.000000  -0.000000
               7          8          9         10         11         12
     1  C   -0.072869   0.000003  -0.008920  -0.000815   0.000023   0.000021
     2  C    0.500072   0.001054  -0.083370  -0.001713  -0.000049  -0.000069
     3  C    0.016365   0.002867   0.287712  -0.039890   0.003909   0.000601
     4  C   -0.059453  -0.056609  -0.085980  -0.007059   0.000088  -0.000015
     5  C   -0.008152   0.287995   0.006676  -0.000170  -0.000007  -0.000001
     6  C    0.513233  -0.069323   0.000168   0.000008  -0.000000   0.000000
     7  C    4.992383   0.003896   0.007589   0.000150   0.000005   0.000000
     8  N    0.003896   7.007442  -0.000098   0.000002  -0.000000   0.000000
     9  N    0.007589  -0.000098   7.041834   0.313228  -0.050820  -0.017312
    10  C    0.000150   0.000002   0.313228   4.937850   0.352055  -0.021460
    11  C    0.000005  -0.000000  -0.050820   0.352055   5.110055   0.345338
    12  C    0.000000   0.000000  -0.017312  -0.021460   0.345338   5.055508
    13  C    0.000008  -0.000000  -0.048937  -0.013036  -0.044832   0.382056
    14  C   -0.000150   0.000001   0.298487  -0.042584  -0.011353  -0.028449
    15  C    0.000000  -0.000000  -0.000116   0.003086  -0.034728   0.374339
    16  C   -0.000000   0.000000  -0.000002   0.000163  -0.000748  -0.052744
    17  O   -0.000000  -0.000000  -0.000004  -0.000054   0.003311  -0.049565
    18  H   -0.001662  -0.000000  -0.000241  -0.000045   0.000008   0.000000
    19  H    0.002646   0.000000   0.003033   0.001117  -0.000089   0.000015
    20  H   -0.004426   0.000000   0.000048   0.000017  -0.000001  -0.000000
    21  H    0.000308  -0.007731   0.001072   0.000279  -0.000259  -0.000031
    22  H   -0.035665  -0.007256   0.000006  -0.000000   0.000000   0.000000
    23  H    0.348579  -0.000144  -0.000113  -0.000002  -0.000000  -0.000000
    24  H   -0.000146   0.308539  -0.000007   0.000001  -0.000000   0.000000
    25  H   -0.000048   0.308642   0.000002  -0.000000  -0.000000  -0.000000
    26  H   -0.000192  -0.000000  -0.056043   0.348566  -0.047230  -0.012031
    27  H   -0.000054   0.000002  -0.038073   0.372561  -0.025965   0.004131
    28  H   -0.000000  -0.000000   0.004627  -0.033174   0.355082  -0.035059
    29  H   -0.000000  -0.000000   0.003033  -0.035850   0.364194  -0.044070
    30  H   -0.000000  -0.000000  -0.001398  -0.002808  -0.044381   0.346205
    31  H   -0.000000  -0.000000   0.003155  -0.000287  -0.004913  -0.043080
    32  H   -0.000000   0.000000   0.004447  -0.000173   0.006024  -0.033254
    33  H   -0.000059   0.000000  -0.039322   0.005249  -0.000111   0.004521
    34  H   -0.000157  -0.000000  -0.052744  -0.008546   0.000001  -0.013255
    35  H    0.000000   0.000000  -0.000040  -0.000127  -0.003494  -0.048796
    36  H    0.000000  -0.000000  -0.000000  -0.000063  -0.000620  -0.008407
    37  H    0.000000   0.000000   0.000000   0.000000   0.000071   0.005347
    38  H   -0.000000   0.000000   0.000001   0.000063  -0.000135  -0.000597
    39  H    0.000000   0.000000   0.000001  -0.000006  -0.000019  -0.005748
              13         14         15         16         17         18
     1  C    0.000054  -0.000037  -0.000000   0.000000   0.000000   0.359142
     2  C    0.000279  -0.011176   0.000000  -0.000000   0.000000  -0.027025
     3  C    0.003172  -0.029170  -0.000000   0.000000   0.000000  -0.003316
     4  C   -0.000272   0.003210  -0.000000  -0.000000  -0.000000  -0.000079
     5  C    0.000001  -0.000233   0.000000  -0.000000  -0.000000  -0.000001
     6  C   -0.000000   0.000024  -0.000000   0.000000   0.000000  -0.000140
     7  C    0.000008  -0.000150   0.000000  -0.000000  -0.000000  -0.001662
     8  N   -0.000000   0.000001  -0.000000   0.000000  -0.000000  -0.000000
     9  N   -0.048937   0.298487  -0.000116  -0.000002  -0.000004  -0.000241
    10  C   -0.013036  -0.042584   0.003086   0.000163  -0.000054  -0.000045
    11  C   -0.044832  -0.011353  -0.034728  -0.000748   0.003311   0.000008
    12  C    0.382056  -0.028449   0.374339  -0.052744  -0.049565   0.000000
    13  C    5.076259   0.355634  -0.039624   0.005653  -0.003432  -0.000022
    14  C    0.355634   4.950665   0.003528  -0.000105   0.000314  -0.000653
    15  C   -0.039624   0.003528   4.722158   0.367019   0.253909  -0.000000
    16  C    0.005653  -0.000105   0.367019   5.188250  -0.051203   0.000000
    17  O   -0.003432   0.000314   0.253909  -0.051203   8.265312   0.000000
    18  H   -0.000022  -0.000653  -0.000000   0.000000   0.000000   0.574240
    19  H    0.000118  -0.002343  -0.000000   0.000000   0.000000  -0.033914
    20  H   -0.000003   0.000255  -0.000000   0.000000   0.000000  -0.029647
    21  H   -0.000051  -0.000027  -0.000000   0.000000   0.000000   0.000004
    22  H   -0.000000  -0.000000  -0.000000   0.000000   0.000000   0.000004
    23  H   -0.000000  -0.000006  -0.000000   0.000000  -0.000000   0.000519
    24  H    0.000000   0.000000   0.000000  -0.000000  -0.000000  -0.000000
    25  H    0.000000  -0.000000   0.000000  -0.000000  -0.000000  -0.000000
    26  H    0.000114  -0.009580  -0.000040  -0.000017   0.000000   0.000118
    27  H   -0.000118   0.005310  -0.000096   0.000004   0.000000  -0.000009
    28  H    0.005690  -0.000244  -0.006446   0.003044   0.000010   0.000000
    29  H   -0.005160  -0.000393  -0.005077  -0.001167   0.000009   0.000000
    30  H   -0.051643  -0.002407  -0.037512  -0.008149  -0.002347  -0.000003
    31  H    0.362168  -0.035558  -0.005627   0.000053  -0.000026  -0.000001
    32  H    0.354540  -0.033739  -0.007069   0.000292   0.012785   0.000013
    33  H   -0.025517   0.374412  -0.000112   0.000002   0.000001   0.000250
    34  H   -0.047994   0.344512  -0.000012   0.000002  -0.000003   0.003649
    35  H   -0.008368   0.000050   0.377478  -0.053818  -0.038822  -0.000000
    36  H   -0.000001  -0.000000  -0.030800   0.363979  -0.002259  -0.000000
    37  H   -0.000124   0.000002  -0.026532   0.367033   0.002500  -0.000000
    38  H   -0.000144  -0.000008  -0.024099   0.345129   0.004098  -0.000000
    39  H   -0.000712  -0.000062  -0.030361  -0.005713   0.230718   0.000000
              19         20         21         22         23         24
     1  C    0.359551   0.360852  -0.000178  -0.000221  -0.011321  -0.000000
     2  C   -0.028423  -0.027729   0.006953   0.003932  -0.036367  -0.000034
     3  C   -0.003903   0.003249  -0.032297   0.000964   0.004207  -0.000071
     4  C   -0.000044  -0.000183   0.331245   0.005224   0.000731  -0.009371
     5  C    0.000050   0.000024  -0.048079  -0.046188   0.003792  -0.022871
     6  C   -0.000258   0.000251   0.006072   0.344917  -0.043408   0.006039
     7  C    0.002646  -0.004426   0.000308  -0.035665   0.348579  -0.000146
     8  N    0.000000   0.000000  -0.007731  -0.007256  -0.000144   0.308539
     9  N    0.003033   0.000048   0.001072   0.000006  -0.000113  -0.000007
    10  C    0.001117   0.000017   0.000279  -0.000000  -0.000002   0.000001
    11  C   -0.000089  -0.000001  -0.000259   0.000000  -0.000000  -0.000000
    12  C    0.000015  -0.000000  -0.000031   0.000000  -0.000000   0.000000
    13  C    0.000118  -0.000003  -0.000051  -0.000000  -0.000000   0.000000
    14  C   -0.002343   0.000255  -0.000027  -0.000000  -0.000006   0.000000
    15  C   -0.000000  -0.000000  -0.000000  -0.000000  -0.000000   0.000000
    16  C    0.000000   0.000000   0.000000   0.000000   0.000000  -0.000000
    17  O    0.000000   0.000000   0.000000   0.000000  -0.000000  -0.000000
    18  H   -0.033914  -0.029647   0.000004   0.000004   0.000519  -0.000000
    19  H    0.572609  -0.029456  -0.000006   0.000003   0.000153   0.000000
    20  H   -0.029456   0.570303   0.000003  -0.000020   0.007190   0.000000
    21  H   -0.000006   0.000003   0.627711  -0.000204   0.000020   0.005707
    22  H    0.000003  -0.000020  -0.000204   0.625788  -0.005796  -0.000105
    23  H    0.000153   0.007190   0.000020  -0.005796   0.614170   0.000004
    24  H    0.000000   0.000000   0.005707  -0.000105   0.000004   0.427159
    25  H    0.000000   0.000000  -0.000061   0.005698  -0.000002  -0.029943
    26  H    0.003767  -0.000017   0.000169   0.000000   0.000005  -0.000000
    27  H    0.000017  -0.000001   0.000223  -0.000000  -0.000000   0.000001
    28  H   -0.000002   0.000000   0.000011  -0.000000   0.000000   0.000000
    29  H    0.000002   0.000000   0.000334  -0.000000   0.000000  -0.000000
    30  H    0.000013   0.000000   0.000001   0.000000   0.000000  -0.000000
    31  H   -0.000002   0.000000   0.000088   0.000000   0.000000  -0.000000
    32  H   -0.000009  -0.000000   0.000002  -0.000000   0.000000  -0.000000
    33  H    0.000145  -0.000004  -0.000022  -0.000000  -0.000001   0.000000
    34  H    0.000259   0.000179   0.000047   0.000000   0.000007  -0.000000
    35  H    0.000000  -0.000000  -0.000000   0.000000  -0.000000   0.000000
    36  H    0.000000  -0.000000  -0.000000  -0.000000   0.000000   0.000000
    37  H   -0.000000  -0.000000  -0.000000  -0.000000   0.000000   0.000000
    38  H    0.000000   0.000000   0.000000  -0.000000   0.000000  -0.000000
    39  H    0.000000  -0.000000   0.000000  -0.000000   0.000000  -0.000000
              25         26         27         28         29         30
     1  C   -0.000000  -0.002332   0.000216  -0.000000  -0.000005  -0.000030
     2  C   -0.000011   0.004958  -0.000712   0.000008   0.000014   0.000005
     3  C   -0.000091  -0.002848   0.002171  -0.000066  -0.000545  -0.000126
     4  C    0.005288   0.000275   0.003851  -0.000018   0.000126   0.000003
     5  C   -0.022293   0.000050  -0.000341   0.000000   0.000006   0.000000
     6  C   -0.009689  -0.000004   0.000001   0.000000   0.000000  -0.000000
     7  C   -0.000048  -0.000192  -0.000054  -0.000000  -0.000000  -0.000000
     8  N    0.308642  -0.000000   0.000002  -0.000000  -0.000000  -0.000000
     9  N    0.000002  -0.056043  -0.038073   0.004627   0.003033  -0.001398
    10  C   -0.000000   0.348566   0.372561  -0.033174  -0.035850  -0.002808
    11  C   -0.000000  -0.047230  -0.025965   0.355082   0.364194  -0.044381
    12  C   -0.000000  -0.012031   0.004131  -0.035059  -0.044070   0.346205
    13  C    0.000000   0.000114  -0.000118   0.005690  -0.005160  -0.051643
    14  C   -0.000000  -0.009580   0.005310  -0.000244  -0.000393  -0.002407
    15  C    0.000000  -0.000040  -0.000096  -0.006446  -0.005077  -0.037512
    16  C   -0.000000  -0.000017   0.000004   0.003044  -0.001167  -0.008149
    17  O   -0.000000   0.000000   0.000000   0.000010   0.000009  -0.002347
    18  H   -0.000000   0.000118  -0.000009   0.000000   0.000000  -0.000003
    19  H    0.000000   0.003767   0.000017  -0.000002   0.000002   0.000013
    20  H    0.000000  -0.000017  -0.000001   0.000000   0.000000   0.000000
    21  H   -0.000061   0.000169   0.000223   0.000011   0.000334   0.000001
    22  H    0.005698   0.000000  -0.000000  -0.000000  -0.000000   0.000000
    23  H   -0.000002   0.000005  -0.000000   0.000000   0.000000   0.000000
    24  H   -0.029943  -0.000000   0.000001   0.000000  -0.000000  -0.000000
    25  H    0.428204   0.000000  -0.000000   0.000000   0.000000   0.000000
    26  H    0.000000   0.673106  -0.044231   0.000568   0.006620   0.005718
    27  H   -0.000000  -0.044231   0.577927  -0.002343  -0.005925  -0.000079
    28  H    0.000000   0.000568  -0.002343   0.613702  -0.034361  -0.004329
    29  H    0.000000   0.006620  -0.005925  -0.034361   0.604261   0.006762
    30  H    0.000000   0.005718  -0.000079  -0.004329   0.006762   0.669138
    31  H    0.000000   0.000272  -0.000053   0.000037   0.004877   0.006700
    32  H    0.000000   0.000114   0.000011  -0.000132   0.000032  -0.003983
    33  H   -0.000000  -0.000319  -0.000146   0.000011  -0.000048  -0.000104
    34  H    0.000000   0.013221  -0.000343   0.000129   0.000289   0.006782
    35  H   -0.000000   0.000002   0.000005  -0.000173   0.005259   0.006560
    36  H   -0.000000   0.000003   0.000001   0.000673   0.000144   0.005793
    37  H   -0.000000  -0.000000  -0.000000  -0.000055  -0.000045  -0.000137
    38  H   -0.000000   0.000011  -0.000004   0.001627   0.001020   0.000256
    39  H   -0.000000  -0.000000   0.000000   0.000007   0.000024   0.006675
              31         32         33         34         35         36
     1  C   -0.000006   0.000001   0.000096  -0.002530  -0.000000  -0.000000
     2  C    0.000002   0.000002   0.000471   0.002032  -0.000000   0.000000
     3  C   -0.000465  -0.000086   0.002975  -0.002947  -0.000001  -0.000000
     4  C    0.000066  -0.000001   0.000868  -0.000061   0.000000  -0.000000
     5  C    0.000003   0.000000  -0.000062   0.000024  -0.000000   0.000000
     6  C    0.000000   0.000000  -0.000018   0.000001  -0.000000  -0.000000
     7  C   -0.000000  -0.000000  -0.000059  -0.000157   0.000000   0.000000
     8  N   -0.000000   0.000000   0.000000  -0.000000   0.000000  -0.000000
     9  N    0.003155   0.004447  -0.039322  -0.052744  -0.000040  -0.000000
    10  C   -0.000287  -0.000173   0.005249  -0.008546  -0.000127  -0.000063
    11  C   -0.004913   0.006024  -0.000111   0.000001  -0.003494  -0.000620
    12  C   -0.043080  -0.033254   0.004521  -0.013255  -0.048796  -0.008407
    13  C    0.362168   0.354540  -0.025517  -0.047994  -0.008368  -0.000001
    14  C   -0.035558  -0.033739   0.374412   0.344512   0.000050  -0.000000
    15  C   -0.005627  -0.007069  -0.000112  -0.000012   0.377478  -0.030800
    16  C    0.000053   0.000292   0.000002   0.000002  -0.053818   0.363979
    17  O   -0.000026   0.012785   0.000001  -0.000003  -0.038822  -0.002259
    18  H   -0.000001   0.000013   0.000250   0.003649  -0.000000  -0.000000
    19  H   -0.000002  -0.000009   0.000145   0.000259   0.000000   0.000000
    20  H    0.000000  -0.000000  -0.000004   0.000179  -0.000000  -0.000000
    21  H    0.000088   0.000002  -0.000022   0.000047  -0.000000  -0.000000
    22  H    0.000000  -0.000000  -0.000000   0.000000   0.000000  -0.000000
    23  H    0.000000   0.000000  -0.000001   0.000007  -0.000000   0.000000
    24  H   -0.000000  -0.000000   0.000000  -0.000000   0.000000   0.000000
    25  H    0.000000   0.000000  -0.000000   0.000000  -0.000000  -0.000000
    26  H    0.000272   0.000114  -0.000319   0.013221   0.000002   0.000003
    27  H   -0.000053   0.000011  -0.000146  -0.000343   0.000005   0.000001
    28  H    0.000037  -0.000132   0.000011   0.000129  -0.000173   0.000673
    29  H    0.004877   0.000032  -0.000048   0.000289   0.005259   0.000144
    30  H    0.006700  -0.003983  -0.000104   0.006782   0.006560   0.005793
    31  H    0.603539  -0.030694  -0.005613   0.006894   0.005815   0.000011
    32  H   -0.030694   0.590803  -0.002206   0.000664  -0.000290  -0.000007
    33  H   -0.005613  -0.002206   0.583957  -0.045937   0.000000   0.000000
    34  H    0.006894   0.000664  -0.045937   0.680000   0.000003  -0.000001
    35  H    0.005815  -0.000290   0.000000   0.000003   0.615275   0.005758
    36  H    0.000011  -0.000007   0.000000  -0.000001   0.005758   0.592295
    37  H   -0.000001  -0.000005  -0.000000   0.000000  -0.004313  -0.034563
    38  H   -0.000002  -0.000020   0.000000   0.000000  -0.000811  -0.027422
    39  H    0.000073  -0.000011   0.000001  -0.000004   0.007856   0.006247
              37         38         39
     1  C    0.000000  -0.000000  -0.000000
     2  C    0.000000   0.000000   0.000000
     3  C   -0.000000   0.000000  -0.000000
     4  C    0.000000  -0.000000   0.000000
     5  C    0.000000   0.000000   0.000000
     6  C   -0.000000  -0.000000  -0.000000
     7  C    0.000000  -0.000000   0.000000
     8  N    0.000000   0.000000   0.000000
     9  N    0.000000   0.000001   0.000001
    10  C    0.000000   0.000063  -0.000006
    11  C    0.000071  -0.000135  -0.000019
    12  C    0.005347  -0.000597  -0.005748
    13  C   -0.000124  -0.000144  -0.000712
    14  C    0.000002  -0.000008  -0.000062
    15  C   -0.026532  -0.024099  -0.030361
    16  C    0.367033   0.345129  -0.005713
    17  O    0.002500   0.004098   0.230718
    18  H   -0.000000  -0.000000   0.000000
    19  H   -0.000000   0.000000   0.000000
    20  H   -0.000000   0.000000  -0.000000
    21  H   -0.000000   0.000000   0.000000
    22  H   -0.000000  -0.000000  -0.000000
    23  H    0.000000   0.000000   0.000000
    24  H    0.000000  -0.000000  -0.000000
    25  H   -0.000000  -0.000000  -0.000000
    26  H   -0.000000   0.000011  -0.000000
    27  H   -0.000000  -0.000004   0.000000
    28  H   -0.000055   0.001627   0.000007
    29  H   -0.000045   0.001020   0.000024
    30  H   -0.000137   0.000256   0.006675
    31  H   -0.000001  -0.000002   0.000073
    32  H   -0.000005  -0.000020  -0.000011
    33  H   -0.000000   0.000000   0.000001
    34  H    0.000000   0.000000  -0.000004
    35  H   -0.004313  -0.000811   0.007856
    36  H   -0.034563  -0.027422   0.006247
    37  H    0.559767  -0.026132  -0.000781
    38  H   -0.026132   0.580402  -0.000062
    39  H   -0.000781  -0.000062   0.410529
 Mulliken charges:
               1
     1  C   -0.533536
     2  C    0.150593
     3  C    0.205970
     4  C   -0.198010
     5  C    0.296733
     6  C   -0.168240
     7  C   -0.202197
     8  N   -0.779282
     9  N   -0.491579
    10  C   -0.126531
    11  C   -0.270410
    12  C   -0.104143
    13  C   -0.255753
    14  C   -0.128126
    15  C    0.146735
    16  C   -0.466956
    17  O   -0.625253
    18  H    0.158811
    19  H    0.154949
    20  H    0.149118
    21  H    0.108698
    22  H    0.108919
    23  H    0.117783
    24  H    0.315098
    25  H    0.314305
    26  H    0.117229
    27  H    0.152060
    28  H    0.131176
    29  H    0.135637
    30  H    0.098826
    31  H    0.132572
    32  H    0.141948
    33  H    0.146642
    34  H    0.115839
    35  H    0.134990
    36  H    0.129238
    37  H    0.157969
    38  H    0.146831
    39  H    0.381347
 Sum of Mulliken charges =  -0.00000
 Mulliken charges with hydrogens summed into heavy atoms:
               1
     1  C   -0.070658
     2  C    0.150593
     3  C    0.205970
     4  C   -0.089312
     5  C    0.296733
     6  C   -0.059321
     7  C   -0.084415
     8  N   -0.149879
     9  N   -0.491579
    10  C    0.142758
    11  C   -0.003596
    12  C   -0.005316
    13  C    0.018766
    14  C    0.134354
    15  C    0.281726
    16  C   -0.032918
    17  O   -0.243906
 Electronic spatial extent (au):  <R**2>=           5801.4204
 Charge=              0.0000 electrons
 Dipole moment (field-independent basis, Debye):
    X=              0.6216    Y=              0.0349    Z=              0.4258  Tot=              0.7543
 Quadrupole moment (field-independent basis, Debye-Ang):
   XX=            -99.3720   YY=            -95.7902   ZZ=           -106.6151
   XY=             -5.2761   XZ=            -13.0912   YZ=              4.4177
 Traceless Quadrupole moment (field-independent basis, Debye-Ang):
   XX=              1.2204   YY=              4.8022   ZZ=             -6.0226
   XY=             -5.2761   XZ=            -13.0912   YZ=              4.4177
 Octapole moment (field-independent basis, Debye-Ang**2):
  XXX=             73.1073  YYY=            -12.8364  ZZZ=             -4.2552  XYY=             -1.8504
  XXY=             -2.1377  XXZ=              8.9539  XZZ=              2.0886  YZZ=             -3.7263
  YYZ=            -15.2612  XYZ=             19.5582
 Hexadecapole moment (field-independent basis, Debye-Ang**3):
 XXXX=          -5815.6361 YYYY=          -1014.5751 ZZZZ=           -497.2665 XXXY=           -226.3000
 XXXZ=           -298.8207 YYYX=            -68.5127 YYYZ=             43.1812 ZZZX=             -5.2342
 ZZZY=              0.3855 XXYY=          -1066.9752 XXZZ=          -1197.4898 YYZZ=           -249.5850
 XXYZ=            103.6130 YYXZ=            -36.1175 ZZXY=            -16.9790
 N-N= 1.233647911917D+03 E-N=-4.165640343977D+03  KE= 7.246326763200D+02
 Calling FoFJK, ICntrl=      2127 FMM=F ISym2X=0 I1Cent= 0 IOpClX= 0 NMat=1 NMatS=1 NMatT=0.
 ***** Axes restored to original set *****
 -------------------------------------------------------------------
 Center     Atomic                   Forces (Hartrees/Bohr)
 Number     Number              X              Y              Z
 -------------------------------------------------------------------
      1        6          -0.001774349   -0.001162348    0.002387037
      2        6          -0.002913391    0.012949226    0.000322181
      3        6           0.022924324    0.025434232   -0.001774358
      4        6          -0.006100331   -0.003882542   -0.005891144
      5        6           0.003635246   -0.005720595    0.017168442
      6        6          -0.013871425    0.009965085   -0.004926891
      7        6           0.011562402   -0.008333793    0.000063777
      8        7           0.000991306   -0.001604859   -0.003871719
      9        7           0.000330734   -0.005253611    0.002134438
     10        6           0.001349943   -0.011856484   -0.008035296
     11        6          -0.004885164   -0.001409345    0.002081931
     12        6           0.011228862    0.000329703   -0.005616768
     13        6          -0.003212862   -0.000937889    0.000368868
     14        6           0.004201131   -0.009987732    0.005981403
     15        6          -0.016244036    0.001902190    0.007375141
     16        6           0.004280806   -0.002931150    0.003686137
     17        8           0.002440346   -0.003506131   -0.010694847
     18        1          -0.005331411   -0.003059882    0.000709548
     19        1          -0.002731635   -0.003205200   -0.003078075
     20        1           0.001988176    0.000639119   -0.001539274
     21        1          -0.001626056   -0.000918189   -0.001588878
     22        1           0.001693134    0.000840755   -0.000862529
     23        1          -0.001291744   -0.002345747    0.000354879
     24        1           0.001280091    0.003805084   -0.000280829
     25        1           0.001785488   -0.002700087   -0.000799073
     26        1          -0.005361586    0.000568615    0.004484969
     27        1          -0.000726179    0.004543808   -0.006106575
     28        1          -0.000330016   -0.001387197    0.000475426
     29        1           0.000241528    0.001169660   -0.000799998
     30        1          -0.002206522   -0.001645070    0.002610405
     31        1           0.000365260    0.000673151    0.001008009
     32        1           0.000493748   -0.002468424    0.001807665
     33        1           0.002177131    0.003817312    0.004564198
     34        1          -0.006244167    0.001653213   -0.001123577
     35        1          -0.001674979    0.000958564   -0.004026287
     36        1          -0.000879439    0.002907420    0.001743986
     37        1           0.001750884    0.001000763   -0.001847264
     38        1          -0.000645310    0.000227092    0.002344427
     39        1           0.003330061    0.000931285    0.001190516
 -------------------------------------------------------------------
 Cartesian Forces:  Max     0.025434232 RMS     0.005707248

 GradGradGradGradGradGradGradGradGradGradGradGradGradGradGradGradGradGrad
 Berny optimization.
 FormGI is forming the generalized inverse of G from B-inverse, IUseBI=4.
 Internal  Forces:  Max     0.022715002 RMS     0.003151886
 Search for a local minimum.
 Step number   1 out of a maximum of  230
 All quantities printed in internal units (Hartrees-Bohrs-Radians)
 Mixed Optimization -- RFO/linear search
 Second derivative matrix not updated -- first step.
 ITU=  0
     Eigenvalues ---    0.00230   0.00439   0.00490   0.00591   0.00733
     Eigenvalues ---    0.01121   0.01302   0.01480   0.01568   0.01668
     Eigenvalues ---    0.01671   0.01874   0.01972   0.02029   0.02037
     Eigenvalues ---    0.02059   0.02093   0.02173   0.02191   0.02293
     Eigenvalues ---    0.02840   0.03700   0.04034   0.04336   0.04567
     Eigenvalues ---    0.04613   0.04761   0.04788   0.04849   0.04981
     Eigenvalues ---    0.05436   0.05681   0.05683   0.06043   0.06236
     Eigenvalues ---    0.07167   0.07283   0.07328   0.07677   0.08100
     Eigenvalues ---    0.08191   0.08655   0.08726   0.08810   0.09474
     Eigenvalues ---    0.12312   0.14017   0.15990   0.15996   0.15997
     Eigenvalues ---    0.16000   0.16000   0.16000   0.16000   0.16000
     Eigenvalues ---    0.16000   0.16000   0.16000   0.16000   0.16000
     Eigenvalues ---    0.16839   0.17004   0.19669   0.19834   0.20558
     Eigenvalues ---    0.22334   0.23361   0.24508   0.24581   0.24986
[...]
   360    O   17  px     Ryd( 4p)     0.00038       1.23217
   361    O   17  px     Ryd( 5p)     0.00000       5.20970
   362    O   17  py     Val( 2p)     0.74824      -0.18107
   363    O   17  py     Ryd( 3p)     0.00108       0.52825
   364    O   17  py     Ryd( 4p)     0.00039       1.15125
   365    O   17  py     Ryd( 5p)     0.00000       5.38781
   366    O   17  pz     Val( 2p)     0.86042      -0.20962
   367    O   17  pz     Ryd( 3p)     0.00104       0.57510
   368    O   17  pz     Ryd( 4p)     0.00016       1.17615
   369    O   17  pz     Ryd( 5p)     0.00002       5.26888
   370    O   17  dxy    Ryd( 3d)     0.00015       3.27605
   371    O   17  dxz    Ryd( 3d)     0.00050       3.25758
   372    O   17  dyz    Ryd( 3d)     0.00057       3.51424
   373    O   17  dx2y2  Ryd( 3d)     0.00026       3.36140
   374    O   17  dz2    Ryd( 3d)     0.00045       3.16897
 
   375    H   18  S      Val( 1S)     0.39701       0.12294
   376    H   18  S      Ryd( 2S)     0.00026       0.45913
   377    H   18  S      Ryd( 3S)     0.00051       0.89274
   378    H   18  S      Ryd( 4S)     0.00006       1.93835
   379    H   18  px     Ryd( 2p)     0.00008       2.03285
   380    H   18  py     Ryd( 2p)     0.00010       2.09483
   381    H   18  pz     Ryd( 2p)     0.00013       2.50474
 
   382    H   19  S      Val( 1S)     0.39553       0.12818
   383    H   19  S      Ryd( 2S)     0.00051       0.59194
   384    H   19  S      Ryd( 3S)     0.00045       1.21491
   385    H   19  S      Ryd( 4S)     0.00007       1.46967
   386    H   19  px     Ryd( 2p)     0.00011       2.44645
   387    H   19  py     Ryd( 2p)     0.00007       1.90232
   388    H   19  pz     Ryd( 2p)     0.00009       2.35340
 
   389    H   20  S      Val( 1S)     0.39969       0.12274
   390    H   20  S      Ryd( 2S)     0.00015       0.59742
   391    H   20  S      Ryd( 3S)     0.00038       1.18327
   392    H   20  S      Ryd( 4S)     0.00004       1.47826
   393    H   20  px     Ryd( 2p)     0.00009       2.25086
   394    H   20  py     Ryd( 2p)     0.00010       2.29106
   395    H   20  pz     Ryd( 2p)     0.00008       2.00784
 
   396    H   21  S      Val( 1S)     0.39535       0.14342
   397    H   21  S      Ryd( 2S)     0.00036       0.73383
   398    H   21  S      Ryd( 3S)     0.00070       1.41076
   399    H   21  S      Ryd( 4S)     0.00019       2.96038
   400    H   21  px     Ryd( 2p)     0.00013       2.36924
   401    H   21  py     Ryd( 2p)     0.00018       2.64411
   402    H   21  pz     Ryd( 2p)     0.00010       1.76619
 
   403    H   22  S      Val( 1S)     0.39822       0.13534
   404    H   22  S      Ryd( 2S)     0.00034       0.40224
   405    H   22  S      Ryd( 4S)     0.00031       1.52196
   406    H   22  S      Ryd( 3S)     0.00002       1.05292
   407    H   22  px     Ryd( 2p)     0.00021       2.81468
   408    H   22  py     Ryd( 2p)     0.00005       2.09816
   409    H   22  pz     Ryd( 2p)     0.00011       1.71503
 
   410    H   23  S      Val( 1S)     0.40334       0.13622
   411    H   23  S      Ryd( 2S)     0.00011       0.55765
   412    H   23  S      Ryd( 4S)     0.00037       1.54518
   413    H   23  S      Ryd( 3S)     0.00002       1.53499
   414    H   23  px     Ryd( 2p)     0.00011       2.33744
   415    H   23  py     Ryd( 2p)     0.00018       2.61050
   416    H   23  pz     Ryd( 2p)     0.00012       1.74070
 
   417    H   24  S      Val( 1S)     0.31077       0.16653
   418    H   24  S      Ryd( 2S)     0.00218       0.38617
   419    H   24  S      Ryd( 4S)     0.00032       1.75901
   420    H   24  S      Ryd( 3S)     0.00003       1.12192
   421    H   24  px     Ryd( 2p)     0.00014       2.08009
   422    H   24  py     Ryd( 2p)     0.00020       2.35979
   423    H   24  pz     Ryd( 2p)     0.00041       1.99195
 
   424    H   25  S      Val( 1S)     0.30464       0.16071
   425    H   25  S      Ryd( 2S)     0.00608       0.32975
   426    H   25  S      Ryd( 4S)     0.00031       1.87458
   427    H   25  S      Ryd( 3S)     0.00003       1.07533
   428    H   25  px     Ryd( 2p)     0.00021       2.63938
   429    H   25  py     Ryd( 2p)     0.00016       1.88521
   430    H   25  pz     Ryd( 2p)     0.00038       1.91160
 
   431    H   26  S      Val( 1S)     0.42074       0.11224
   432    H   26  S      Ryd( 2S)     0.00042       0.51534
   433    H   26  S      Ryd( 4S)     0.00065       1.78792
   434    H   26  S      Ryd( 3S)     0.00001       1.11650
   435    H   26  px     Ryd( 2p)     0.00009       2.02799
   436    H   26  py     Ryd( 2p)     0.00015       2.58272
   437    H   26  pz     Ryd( 2p)     0.00007       2.32672
 
   438    H   27  S      Val( 1S)     0.39810       0.13497
   439    H   27  S      Ryd( 2S)     0.00027       0.62261
   440    H   27  S      Ryd( 4S)     0.00031       1.58793
   441    H   27  S      Ryd( 3S)     0.00003       1.22784
   442    H   27  px     Ryd( 2p)     0.00011       2.28312
   443    H   27  py     Ryd( 2p)     0.00010       2.31188
   444    H   27  pz     Ryd( 2p)     0.00009       2.27058
 
   445    H   28  S      Val( 1S)     0.39807       0.13243
   446    H   28  S      Ryd( 2S)     0.00027       0.58975
   447    H   28  S      Ryd( 4S)     0.00034       1.70913
   448    H   28  S      Ryd( 3S)     0.00001       1.02706
   449    H   28  px     Ryd( 2p)     0.00010       2.11105
   450    H   28  py     Ryd( 2p)     0.00007       1.99166
   451    H   28  pz     Ryd( 2p)     0.00014       2.65580
 
   452    H   29  S      Val( 1S)     0.40235       0.12868
   453    H   29  S      Ryd( 2S)     0.00064       0.46127
   454    H   29  S      Ryd( 4S)     0.00050       2.16358
   455    H   29  S      Ryd( 3S)     0.00002       0.90095
   456    H   29  px     Ryd( 2p)     0.00007       1.96572
   457    H   29  py     Ryd( 2p)     0.00013       2.78736
   458    H   29  pz     Ryd( 2p)     0.00007       2.07262
 
   459    H   30  S      Val( 1S)     0.40435       0.12101
   460    H   30  S      Ryd( 2S)     0.00154       0.48853
   461    H   30  S      Ryd( 3S)     0.00098       1.53642
   462    H   30  S      Ryd( 4S)     0.00010       2.56893
   463    H   30  px     Ryd( 2p)     0.00007       2.19492
   464    H   30  py     Ryd( 2p)     0.00014       2.76217
   465    H   30  pz     Ryd( 2p)     0.00009       2.16612
 
   466    H   31  S      Val( 1S)     0.40247       0.13553
   467    H   31  S      Ryd( 2S)     0.00061       0.42170
   468    H   31  S      Ryd( 4S)     0.00041       2.05708
   469    H   31  S      Ryd( 3S)     0.00003       1.09881
   470    H   31  px     Ryd( 2p)     0.00008       1.99601
   471    H   31  py     Ryd( 2p)     0.00013       2.57165
   472    H   31  pz     Ryd( 2p)     0.00007       2.29925
 
   473    H   32  S      Val( 1S)     0.39187       0.15018
   474    H   32  S      Ryd( 2S)     0.00025       0.53671
   475    H   32  S      Ryd( 4S)     0.00039       1.69348
   476    H   32  S      Ryd( 3S)     0.00001       1.13967
   477    H   32  px     Ryd( 2p)     0.00012       2.19876
   478    H   32  py     Ryd( 2p)     0.00007       2.28617
   479    H   32  pz     Ryd( 2p)     0.00011       2.32829
 
   480    H   33  S      Val( 1S)     0.39945       0.13452
   481    H   33  S      Ryd( 2S)     0.00030       0.50421
   482    H   33  S      Ryd( 4S)     0.00032       1.60316
   483    H   33  S      Ryd( 3S)     0.00002       1.26588
   484    H   33  px     Ryd( 2p)     0.00009       2.21156
   485    H   33  py     Ryd( 2p)     0.00007       1.98556
   486    H   33  pz     Ryd( 2p)     0.00012       2.61884
 
   487    H   34  S      Val( 1S)     0.41807       0.11609
   488    H   34  S      Ryd( 2S)     0.00063       0.58063
   489    H   34  S      Ryd( 4S)     0.00068       1.84469
   490    H   34  S      Ryd( 3S)     0.00001       0.98222
   491    H   34  px     Ryd( 2p)     0.00009       2.06023
   492    H   34  py     Ryd( 2p)     0.00014       2.81814
   493    H   34  pz     Ryd( 2p)     0.00008       2.09150
 
   494    H   35  S      Val( 1S)     0.41601       0.11829
   495    H   35  S      Ryd( 2S)     0.00115       0.74010
   496    H   35  S      Ryd( 3S)     0.00023       1.76367
   497    H   35  S      Ryd( 4S)     0.00012       2.81741
   498    H   35  px     Ryd( 2p)     0.00007       1.94504
   499    H   35  py     Ryd( 2p)     0.00023       2.69583
   500    H   35  pz     Ryd( 2p)     0.00011       2.18245
 
   501    H   36  S      Val( 1S)     0.39862       0.11679
   502    H   36  S      Ryd( 2S)     0.00106       0.33152
   503    H   36  S      Ryd( 4S)     0.00033       1.49421
   504    H   36  S      Ryd( 3S)     0.00004       1.21472
   505    H   36  px     Ryd( 2p)     0.00006       1.90939
   506    H   36  py     Ryd( 2p)     0.00011       2.52970
   507    H   36  pz     Ryd( 2p)     0.00009       2.13600
 
   508    H   37  S      Val( 1S)     0.39582       0.12944
   509    H   37  S      Ryd( 2S)     0.00025       0.36517
   510    H   37  S      Ryd( 4S)     0.00033       1.57456
   511    H   37  S      Ryd( 3S)     0.00002       1.14160
   512    H   37  px     Ryd( 2p)     0.00012       2.62919
   513    H   37  py     Ryd( 2p)     0.00006       1.99882
   514    H   37  pz     Ryd( 2p)     0.00007       1.91003
 
   515    H   38  S      Val( 1S)     0.39834       0.12153
   516    H   38  S      Ryd( 2S)     0.00032       0.54404
   517    H   38  S      Ryd( 4S)     0.00024       1.31604
   518    H   38  S      Ryd( 3S)     0.00002       1.28775
   519    H   38  px     Ryd( 2p)     0.00008       2.00865
   520    H   38  py     Ryd( 2p)     0.00010       2.34538
   521    H   38  pz     Ryd( 2p)     0.00010       2.19264
 
   522    H   39  S      Val( 1S)     0.26935       0.18550
   523    H   39  S      Ryd( 2S)     0.00145       0.32809
   524    H   39  S      Ryd( 4S)     0.00036       2.29400
   525    H   39  S      Ryd( 3S)     0.00005       0.83612
   526    H   39  px     Ryd( 2p)     0.00074       1.79278
   527    H   39  py     Ryd( 2p)     0.00056       2.52672
   528    H   39  pz     Ryd( 2p)     0.00054       1.96432

 WARNING:  Population inversion found on atom  C    2
           Population inversion found on atom  C    3
           Population inversion found on atom  C    4
           Population inversion found on atom  C    5
           Population inversion found on atom  C    6
           Population inversion found on atom  C    7
           Population inversion found on atom  C   10
           Population inversion found on atom  C   11
           Population inversion found on atom  C   12
           Population inversion found on atom  C   13
           Population inversion found on atom  C   14
           Population inversion found on atom  C   15
           Population inversion found on atom  H   18
           Population inversion found on atom  H   20
           Population inversion found on atom  H   21
           Population inversion found on atom  H   22
           Population inversion found on atom  H   23
           Population inversion found on atom  H   24
           Population inversion found on atom  H   25
           Population inversion found on atom  H   26
           Population inversion found on atom  H   27
           Population inversion found on atom  H   28
           Population inversion found on atom  H   29
           Population inversion found on atom  H   31
           Population inversion found on atom  H   32
           Population inversion found on atom  H   33
           Population inversion found on atom  H   34
           Population inversion found on atom  H   36
           Population inversion found on atom  H   37
           Population inversion found on atom  H   38
           Population inversion found on atom  H   39


 Summary of Natural Population Analysis:                  
                                                          
                                       Natural Population 
                Natural  -----------------------------------------------
    Atom  No    Charge         Core      Valence    Rydberg      Total
 -----------------------------------------------------------------------
      C    1   -0.29108      0.99964     2.28692    0.00452     3.29108
      C    2   -0.04630      0.99946     2.03921    0.00763     3.04630
      C    3    0.09590      0.99943     1.89316    0.01152     2.90410
      C    4   -0.12116      0.99947     2.11185    0.00985     3.12116
      C    5    0.08569      0.99948     1.90341    0.01142     2.91431
      C    6   -0.12643      0.99952     2.11636    0.01055     3.12643
      C    7   -0.08967      0.99953     2.08165    0.00848     3.08967
      N    8   -0.39500      0.99972     2.88473    0.01055     3.89500
      N    9   -0.28845      0.99967     2.77607    0.01272     3.78845
      C   10   -0.07620      0.99960     2.06693    0.00967     3.07620
      C   11   -0.19293      0.99961     2.18409    0.00923     3.19293
      C   12   -0.12103      0.99957     2.10937    0.01210     3.12103
      C   13   -0.19146      0.99961     2.18214    0.00972     3.19146
      C   14   -0.08123      0.99961     2.07122    0.01040     3.08123
      C   15    0.06721      0.99955     1.92012    0.01312     2.93279
      C   16   -0.29835      0.99965     2.29297    0.00573     3.29835
      O   17   -0.37258      0.99990     3.36592    0.00676     4.37258
      H   18    0.10184      0.00000     0.39701    0.00115     0.39816
      H   19    0.10317      0.00000     0.39553    0.00130     0.39683
      H   20    0.09946      0.00000     0.39969    0.00085     0.40054
      H   21    0.10300      0.00000     0.39535    0.00165     0.39700
      H   22    0.10074      0.00000     0.39822    0.00104     0.39926
      H   23    0.09575      0.00000     0.40334    0.00091     0.40425
      H   24    0.18595      0.00000     0.31077    0.00328     0.31405
      H   25    0.18820      0.00000     0.30464    0.00716     0.31180
      H   26    0.07786      0.00000     0.42074    0.00139     0.42214
      H   27    0.10099      0.00000     0.39810    0.00091     0.39901
      H   28    0.10101      0.00000     0.39807    0.00092     0.39899
      H   29    0.09622      0.00000     0.40235    0.00143     0.40378
      H   30    0.09272      0.00000     0.40435    0.00292     0.40728
      H   31    0.09620      0.00000     0.40247    0.00133     0.40380
      H   32    0.10717      0.00000     0.39187    0.00096     0.39283
      H   33    0.09962      0.00000     0.39945    0.00092     0.40038
      H   34    0.08031      0.00000     0.41807    0.00163     0.41969
      H   35    0.08208      0.00000     0.41601    0.00191     0.41792
      H   36    0.09969      0.00000     0.39862    0.00169     0.40031
      H   37    0.10333      0.00000     0.39582    0.00085     0.39667
      H   38    0.10080      0.00000     0.39834    0.00086     0.39920
      H   39    0.22694      0.00000     0.26935    0.00370     0.27306
 =======================================================================
   * Total *    0.00000     16.99300    46.80428    0.20271    64.00000

                                 Natural Population      
 --------------------------------------------------------
   Core                      16.99300 ( 99.9588% of  17)
   Valence                   46.80428 ( 99.5836% of  47)
   Natural Minimal Basis     63.79729 ( 99.6833% of  64)
   Natural Rydberg Basis      0.20271 (  0.3167% of  64)
 --------------------------------------------------------

    Atom  No          Natural Electron Configuration
 ----------------------------------------------------------------------------
      C    1      [core]2S( 0.54)2p( 1.75)
      C    2      [core]2S( 0.44)2p( 1.60)
      C    3      [core]2S( 0.41)2p( 1.48)3p( 0.01)
      C    4      [core]2S( 0.47)2p( 1.64)
      C    5      [core]2S( 0.42)2p( 1.48)3p( 0.01)
      C    6      [core]2S( 0.47)2p( 1.65)3p( 0.01)
      C    7      [core]2S( 0.47)2p( 1.61)4p( 0.01)
      N    8      [core]2S( 0.67)2p( 2.21)3p( 0.01)
      N    9      [core]2S( 0.61)2p( 2.16)3p( 0.01)
      C   10      [core]2S( 0.50)2p( 1.57)
      C   11      [core]2S( 0.51)2p( 1.68)
      C   12      [core]2S( 0.48)2p( 1.63)
      C   13      [core]2S( 0.51)2p( 1.67)
      C   14      [core]2S( 0.49)2p( 1.58)
      C   15      [core]2S( 0.47)2p( 1.45)3p( 0.01)
      C   16      [core]2S( 0.54)2p( 1.75)
      O   17      [core]2S( 0.84)2p( 2.53)
      H   18            1S( 0.40)
      H   19            1S( 0.40)
      H   20            1S( 0.40)
      H   21            1S( 0.40)
      H   22            1S( 0.40)
      H   23            1S( 0.40)
      H   24            1S( 0.31)
      H   25            1S( 0.30)2S( 0.01)
      H   26            1S( 0.42)
      H   27            1S( 0.40)
      H   28            1S( 0.40)
      H   29            1S( 0.40)
      H   30            1S( 0.40)
      H   31            1S( 0.40)
      H   32            1S( 0.39)
      H   33            1S( 0.40)
      H   34            1S( 0.42)
      H   35            1S( 0.42)
      H   36            1S( 0.40)
      H   37            1S( 0.40)
      H   38            1S( 0.40)
      H   39            1S( 0.27)


 NBO analysis skipped by request.
 1\1\GINC-NODE212\SP\UB3LYP\6-311++G(d,p)\C14H22N2O1(1-,2)\VSC10255\14-
 Dec-2020\0\\# B3LYP/6-311++G(d,p) empiricaldispersion=gd3bj scf=xqc po
 p=npa geom=check\\CID_106835330_JID_7950_Energie_anion\\-1,2\C,0,-2.94
 90104661,0.0226804154,0.0700337355\C,0,-1.4480475533,0.1761523561,0.00
 06450169\C,0,-0.5630921691,-0.9215702667,-0.028721064\C,0,0.8181266361
 ,-0.7072922419,-0.0503298469\C,0,1.3681219707,0.5804265149,-0.04536957
 11\C,0,0.4895263177,1.6727294967,-0.0365241503\C,0,-0.8841288826,1.457
 9387389,-0.0147944119\N,0,2.7557343574,0.7686082349,-0.0030685135\N,0,
 -0.9786469482,-2.2918434886,-0.0206387028\C,0,-1.1997962325,-2.8864863
 859,1.292619208\C,0,-1.1127851613,-4.4136304243,1.2134690454\C,0,-2.06
 73815394,-4.9768121832,0.1481495839\C,0,-1.8268441264,-4.2593096891,-1
 .1892685425\C,0,-1.9320828823,-2.7423607765,-1.0273265472\C,0,-1.96114
 55913,-6.50349626,-0.0093330871\C,0,-2.2236351458,-7.2775191365,1.2828
 182936\O,0,-2.8267904688,-6.972589037,-1.0498838463\H,0,-3.3877375346,
 -0.2501270555,-0.897961562\H,0,-3.2484413676,-0.7487009617,0.786425530
 4\H,0,-3.4121603763,0.9639905647,0.383096973\H,0,1.4636603161,-1.58097
 76514,-0.081604578\H,0,0.8843707519,2.685950994,-0.034262744\H,0,-1.54
 82858791,2.3192540537,0.005845305\H,0,3.2905315298,-0.0071527572,-0.37
 4873063\H,0,3.0685884748,1.6458331509,-0.4015074159\H,0,-2.1859821317,
 -2.6046980521,1.7139399181\H,0,-0.4384392578,-2.4984818408,1.975667749
 8\H,0,-1.3361260238,-4.8328732256,2.2010765554\H,0,-0.0819378479,-4.69
 48661395,0.9587092386\H,0,-3.0998309416,-4.7530039261,0.4735392986\H,0
 ,-0.8222326335,-4.5095370823,-1.5550437494\H,0,-2.5446705098,-4.613272
 3396,-1.935375976\H,0,-1.6981012425,-2.2371774048,-1.9698584793\H,0,-2
 .9773928447,-2.4898387883,-0.7710680464\H,0,-0.9540489226,-6.743877968
 4,-0.3729805795\H,0,-3.2027136179,-7.009862969,1.7038241026\H,0,-2.222
 9504855,-8.3514749282,1.0739346785\H,0,-1.4657636657,-7.0743130635,2.0
 457786973\H,0,-3.7362579047,-6.7836784766,-0.7658184533\\Version=ES64L
 -G16RevA.03\State=2-A\HF=-731.7312748\S2=0.750055\S2-1=0.\S2A=0.75\RMS
 D=1.456e-11\Dipole=-1.0448269,-0.272507,0.0888583\Quadrupole=-2.992784
 2,-24.6857079,27.6784921,-40.3475836,3.5897149,3.3909458\PG=C01 [X(C14
 H22N2O1)]\\@


 The mind is not a vessel to be filled but a fire to be kindled.
                                  -- Plutarch
 Job cpu time:       0 days  1 hours 37 minutes 40.5 seconds.
 Elapsed time:       0 days  0 hours 24 minutes 40.6 seconds.
 File lengths (MBytes):  RWF=    320 Int=      0 D2E=      0 Chk=     32 Scr=      8
 Normal termination of Gaussian 16 at Mon Dec 14 14:24:31 2020.
