 Entering Gaussian System, Link 0=g16
 Initial command:
 /apps/brussel/CO7/broadwell/software/Gaussian/G16.A.03-intel-2017b/g16/l1.exe "/scratch/brussel/102/vsc10255/3544754[2656].master01.hydra.brussel.vsc/Gau-6468.inp" -scrdir="/scratch/brussel/102/vsc10255/3544754[2656].master01.hydra.brussel.vsc/"
 Entering Link 1 = /apps/brussel/CO7/broadwell/software/Gaussian/G16.A.03-intel-2017b/g16/l1.exe.bin PID=      6471.
  
 Copyright (c) 1988,1990,1992,1993,1995,1998,2003,2009,2016,
            Gaussian, Inc.  All Rights Reserved.
  
 This is part of the Gaussian(R) 16 program.  It is based on
 the Gaussian(R) 09 system (copyright 2009, Gaussian, Inc.),
 the Gaussian(R) 03 system (copyright 2003, Gaussian, Inc.),
 the Gaussian(R) 98 system (copyright 1998, Gaussian, Inc.),
 the Gaussian(R) 94 system (copyright 1995, Gaussian, Inc.),
 the Gaussian 92(TM) system (copyright 1992, Gaussian, Inc.),
 the Gaussian 90(TM) system (copyright 1990, Gaussian, Inc.),
 the Gaussian 88(TM) system (copyright 1988, Gaussian, Inc.),
 the Gaussian 86(TM) system (copyright 1986, Carnegie Mellon
 University), and the Gaussian 82(TM) system (copyright 1983,
 Carnegie Mellon University). Gaussian is a federally registered
 trademark of Gaussian, Inc.
  
 This software contains proprietary and confidential information,
 including trade secrets, belonging to Gaussian, Inc.
  
 This software is provided under written license and may be
 used, copied, transmitted, or stored only in accord with that
 written license.
  
 The following legend is applicable only to US Government
 contracts under FAR:
  
                    RESTRICTED RIGHTS LEGEND
  
 Use, reproduction and disclosure by the US Government is
 subject to restrictions as set forth in subparagraphs (a)
 and (c) of the Commercial Computer Software - Restricted
 Rights clause in FAR 52.227-19.
  
 Gaussian, Inc.
 340 Quinnipiac St., Bldg. 40, Wallingford CT 06492
  
  
 ---------------------------------------------------------------
 Warning -- This program may not be used in any manner that
 competes with the business of Gaussian, Inc. or will provide
 assistance to any competitor of Gaussian, Inc.  The licensee
 of this program is prohibited from giving any competitor of
 Gaussian, Inc. access to this program.  By using this program,
 the user acknowledges that Gaussian, Inc. is engaged in the
 business of creating and licensing software in the field of
 computational chemistry and represents and warrants to the
 licensee that it is not a competitor of Gaussian, Inc. and that
 it will not use this program in any manner prohibited above.
 ---------------------------------------------------------------
  

 Cite this work as:
 Gaussian 16, Revision A.03,
 M. J. Frisch, G. W. Trucks, H. B. Schlegel, G. E. Scuseria, 
 M. A. Robb, J. R. Cheeseman, G. Scalmani, V. Barone, 
 G. A. Petersson, H. Nakatsuji, X. Li, M. Caricato, A. V. Marenich, 
 J. Bloino, B. G. Janesko, R. Gomperts, B. Mennucci, H. P. Hratchian, 
 J. V. Ortiz, A. F. Izmaylov, J. L. Sonnenberg, D. Williams-Young, 
 F. Ding, F. Lipparini, F. Egidi, J. Goings, B. Peng, A. Petrone, 
 T. Henderson, D. Ranasinghe, V. G. Zakrzewski, J. Gao, N. Rega, 
 G. Zheng, W. Liang, M. Hada, M. Ehara, K. Toyota, R. Fukuda, 
 J. Hasegawa, M. Ishida, T. Nakajima, Y. Honda, O. Kitao, H. Nakai, 
 T. Vreven, K. Throssell, J. A. Montgomery, Jr., J. E. Peralta, 
 F. Ogliaro, M. J. Bearpark, J. J. Heyd, E. N. Brothers, K. N. Kudin, 
 V. N. Staroverov, T. A. Keith, R. Kobayashi, J. Normand, 
 K. Raghavachari, A. P. Rendell, J. C. Burant, S. S. Iyengar, 
 J. Tomasi, M. Cossi, J. M. Millam, M. Klene, C. Adamo, R. Cammi, 
 J. W. Ochterski, R. L. Martin, K. Morokuma, O. Farkas, 
 J. B. Foresman, and D. J. Fox, Gaussian, Inc., Wallingford CT, 2016.
 
 ******************************************
 Gaussian 16:  ES64L-G16RevA.03 25-Dec-2016
                 9-Dec-2020 
 ******************************************
 %chk=JID_2656.chk
 %mem=8GB
 %nprocshared=4
 Will use up to    4 processors via shared memory.
 -----------------------------------------------------------
 # opt freq B3LYP/6-31G(d) empiricaldispersion=gd3bj scf=xqc
 -----------------------------------------------------------
 1/18=20,19=15,26=3,38=1/1,3;
 2/9=110,12=2,17=6,18=5,40=1/2;
 3/5=1,6=6,7=1,11=2,25=1,30=1,71=1,74=-5,124=41/1,2,3;
 4//1;
 5/5=2,8=3,13=1,38=5/2,8;
 6/7=2,8=2,9=2,10=2,28=1/1;
 7//1,2,3,16;
 1/18=20,19=15,26=3/3(2);
 2/9=110/2;
 99//99;
 2/9=110/2;
 3/5=1,6=6,7=1,11=2,25=1,30=1,71=1,74=-5,124=41/1,2,3;
 4/5=5,16=3,69=1/1;
 5/5=2,8=3,13=1,38=5/2,8;
 7//1,2,3,16;
 1/18=20,19=15,26=3/3(-5);
 2/9=110/2;
 6/7=2,8=2,9=2,10=2,19=2,28=1/1;
 99/9=1/99;
 ------------------------------
 CID_82652596_JID_2656_neutraal
 ------------------------------
 Symbolic Z-matrix:
 Charge =  0 Multiplicity = 1
 C                     2.236     0.001     0.015 
 C                     0.75348  -0.11239   0.01309 
 C                    -0.09982  -1.20683  -0.00073 
 C                    -1.42769  -0.68926   0.00743 
 C                    -1.36385   0.69194   0.02539 
 N                    -0.02788   1.02006   0.02661 
 C                    -2.40051   1.69407   0.04131 
 O                    -2.19334   2.90078   0.05228 
 O                    -3.62715   1.10583   0.04415 
 C                    -4.71407   2.02973   0.06442 
 C                     0.28104  -2.60992  -0.01919 
 O                    -0.53022  -3.53106  -0.0298 
 H                     2.57777   0.54346  -0.87255 
 H                     2.57577   0.54369   0.90321 
 H                     2.72023  -0.97912   0.01607 
 H                    -2.33764  -1.27916   0.00118 
 H                     0.31319   1.97459   0.03793 
 H                    -4.67778   2.64633   0.96807 
 H                    -4.70218   2.6557   -0.83334 
 H                    -5.64566   1.45716   0.07438 
 H                     1.36254  -2.81962  -0.02353 
 

 GradGradGradGradGradGradGradGradGradGradGradGradGradGradGradGradGradGrad
 Berny optimization.
 Initialization pass.
                           ----------------------------
                           !    Initial Parameters    !
                           ! (Angstroms and Degrees)  !
 --------------------------                            --------------------------
 ! Name  Definition              Value          Derivative Info.                !
 --------------------------------------------------------------------------------
 ! R1    R(1,2)                  1.4869         estimate D2E/DX2                !
 ! R2    R(1,13)                 1.0949         estimate D2E/DX2                !
 ! R3    R(1,14)                 1.0949         estimate D2E/DX2                !
 ! R4    R(1,15)                 1.0932         estimate D2E/DX2                !
 ! R5    R(2,3)                  1.3878         estimate D2E/DX2                !
 ! R6    R(2,6)                  1.3759         estimate D2E/DX2                !
 ! R7    R(3,4)                  1.4252         estimate D2E/DX2                !
 ! R8    R(3,11)                 1.454          estimate D2E/DX2                !
 ! R9    R(4,5)                  1.3828         estimate D2E/DX2                !
 ! R10   R(4,16)                 1.0844         estimate D2E/DX2                !
 ! R11   R(5,6)                  1.3757         estimate D2E/DX2                !
 ! R12   R(5,7)                  1.4419         estimate D2E/DX2                !
 ! R13   R(6,17)                 1.0137         estimate D2E/DX2                !
 ! R14   R(7,8)                  1.2244         estimate D2E/DX2                !
 ! R15   R(7,9)                  1.3604         estimate D2E/DX2                !
 ! R16   R(9,10)                 1.4267         estimate D2E/DX2                !
 ! R17   R(10,18)                1.0946         estimate D2E/DX2                !
 ! R18   R(10,19)                1.0945         estimate D2E/DX2                !
 ! R19   R(10,20)                1.0935         estimate D2E/DX2                !
 ! R20   R(11,12)                1.2275         estimate D2E/DX2                !
 ! R21   R(11,21)                1.1017         estimate D2E/DX2                !
 ! A1    A(2,1,13)             110.3637         estimate D2E/DX2                !
 ! A2    A(2,1,14)             110.3802         estimate D2E/DX2                !
 ! A3    A(2,1,15)             111.9181         estimate D2E/DX2                !
 ! A4    A(13,1,14)            108.3701         estimate D2E/DX2                !
 ! A5    A(13,1,15)            107.8616         estimate D2E/DX2                !
 ! A6    A(14,1,15)            107.8256         estimate D2E/DX2                !
 ! A7    A(1,2,3)              132.3145         estimate D2E/DX2                !
 ! A8    A(1,2,6)              120.2284         estimate D2E/DX2                !
 ! A9    A(3,2,6)              107.4571         estimate D2E/DX2                !
 ! A10   A(2,3,4)              106.6433         estimate D2E/DX2                !
 ! A11   A(2,3,11)             126.8744         estimate D2E/DX2                !
 ! A12   A(4,3,11)             126.4823         estimate D2E/DX2                !
 ! A13   A(3,4,5)              108.6508         estimate D2E/DX2                !
 ! A14   A(3,4,16)             125.7473         estimate D2E/DX2                !
 ! A15   A(5,4,16)             125.6019         estimate D2E/DX2                !
 ! A16   A(4,5,6)              106.4446         estimate D2E/DX2                !
 ! A17   A(4,5,7)              131.387          estimate D2E/DX2                !
 ! A18   A(6,5,7)              122.1685         estimate D2E/DX2                !
 ! A19   A(2,6,5)              110.8041         estimate D2E/DX2                !
 ! A20   A(2,6,17)             125.7359         estimate D2E/DX2                !
 ! A21   A(5,6,17)             123.4599         estimate D2E/DX2                !
 ! A22   A(5,7,8)              124.2909         estimate D2E/DX2                !
 ! A23   A(5,7,9)              110.3501         estimate D2E/DX2                !
 ! A24   A(8,7,9)              125.3589         estimate D2E/DX2                !
 ! A25   A(7,9,10)             114.0139         estimate D2E/DX2                !
 ! A26   A(9,10,18)            110.5652         estimate D2E/DX2                !
 ! A27   A(9,10,19)            110.5141         estimate D2E/DX2                !
 ! A28   A(9,10,20)            108.0645         estimate D2E/DX2                !
 ! A29   A(18,10,19)           110.7708         estimate D2E/DX2                !
 ! A30   A(18,10,20)           108.402          estimate D2E/DX2                !
 ! A31   A(19,10,20)           108.4322         estimate D2E/DX2                !
 ! A32   A(3,11,12)            123.4456         estimate D2E/DX2                !
 ! A33   A(3,11,21)            116.1607         estimate D2E/DX2                !
 ! A34   A(12,11,21)           120.3937         estimate D2E/DX2                !
 ! D1    D(13,1,2,3)           119.3972         estimate D2E/DX2                !
 ! D2    D(13,1,2,6)           -60.5927         estimate D2E/DX2                !
 ! D3    D(14,1,2,3)          -120.8338         estimate D2E/DX2                !
 ! D4    D(14,1,2,6)            59.1763         estimate D2E/DX2                !
 ! D5    D(15,1,2,3)            -0.7354         estimate D2E/DX2                !
 ! D6    D(15,1,2,6)           179.2747         estimate D2E/DX2                !
 ! D7    D(1,2,3,4)            179.9069         estimate D2E/DX2                !
 ! D8    D(1,2,3,11)            -0.0615         estimate D2E/DX2                !
 ! D9    D(6,2,3,4)             -0.1022         estimate D2E/DX2                !
 ! D10   D(6,2,3,11)           179.9294         estimate D2E/DX2                !
 ! D11   D(1,2,6,5)           -179.855          estimate D2E/DX2                !
 ! D12   D(1,2,6,17)             0.0301         estimate D2E/DX2                !
 ! D13   D(3,2,6,5)              0.1528         estimate D2E/DX2                !
 ! D14   D(3,2,6,17)          -179.9621         estimate D2E/DX2                !
 ! D15   D(2,3,4,5)              0.0189         estimate D2E/DX2                !
 ! D16   D(2,3,4,16)          -179.9494         estimate D2E/DX2                !
 ! D17   D(11,3,4,5)           179.9874         estimate D2E/DX2                !
 ! D18   D(11,3,4,16)            0.0191         estimate D2E/DX2                !
 ! D19   D(2,3,11,12)          179.9455         estimate D2E/DX2                !
 ! D20   D(2,3,11,21)           -0.0617         estimate D2E/DX2                !
 ! D21   D(4,3,11,12)           -0.0169         estimate D2E/DX2                !
 ! D22   D(4,3,11,21)          179.9759         estimate D2E/DX2                !
 ! D23   D(3,4,5,6)              0.0716         estimate D2E/DX2                !
 ! D24   D(3,4,5,7)           -179.9077         estimate D2E/DX2                !
 ! D25   D(16,4,5,6)          -179.96           estimate D2E/DX2                !
 ! D26   D(16,4,5,7)             0.0607         estimate D2E/DX2                !
 ! D27   D(4,5,6,2)             -0.1394         estimate D2E/DX2                !
 ! D28   D(4,5,6,17)           179.9724         estimate D2E/DX2                !
 ! D29   D(7,5,6,2)            179.8423         estimate D2E/DX2                !
 ! D30   D(7,5,6,17)            -0.0459         estimate D2E/DX2                !
 ! D31   D(4,5,7,8)           -179.7555         estimate D2E/DX2                !
 ! D32   D(4,5,7,9)              0.3274         estimate D2E/DX2                !
 ! D33   D(6,5,7,8)              0.268          estimate D2E/DX2                !
 ! D34   D(6,5,7,9)           -179.6491         estimate D2E/DX2                !
 ! D35   D(5,7,9,10)           179.7924         estimate D2E/DX2                !
 ! D36   D(8,7,9,10)            -0.1236         estimate D2E/DX2                !
 ! D37   D(7,9,10,18)          -60.9938         estimate D2E/DX2                !
 ! D38   D(7,9,10,19)           62.0169         estimate D2E/DX2                !
 ! D39   D(7,9,10,20)         -179.4848         estimate D2E/DX2                !
 --------------------------------------------------------------------------------
 Trust Radius=3.00D-01 FncErr=1.00D-07 GrdErr=1.00D-06 EigMax=2.50D+02 EigMin=1.00D-04
 Number of steps in this run=    104 maximum allowed number of steps=    126.
 GradGradGradGradGradGradGradGradGradGradGradGradGradGradGradGradGradGrad

                          Input orientation:                          
 ---------------------------------------------------------------------
 Center     Atomic      Atomic             Coordinates (Angstroms)
 Number     Number       Type             X           Y           Z
 ---------------------------------------------------------------------
      1          6           0        2.236000    0.001000    0.015000
      2          6           0        0.753480   -0.112390    0.013090
      3          6           0       -0.099820   -1.206830   -0.000730
      4          6           0       -1.427690   -0.689260    0.007430
      5          6           0       -1.363850    0.691940    0.025390
      6          7           0       -0.027880    1.020060    0.026610
      7          6           0       -2.400510    1.694070    0.041310
      8          8           0       -2.193340    2.900780    0.052280
      9          8           0       -3.627150    1.105830    0.044150
     10          6           0       -4.714070    2.029730    0.064420
     11          6           0        0.281040   -2.609920   -0.019190
     12          8           0       -0.530220   -3.531060   -0.029800
     13          1           0        2.577770    0.543460   -0.872550
     14          1           0        2.575770    0.543690    0.903210
     15          1           0        2.720230   -0.979120    0.016070
     16          1           0       -2.337640   -1.279160    0.001180
     17          1           0        0.313190    1.974590    0.037930
     18          1           0       -4.677780    2.646330    0.968070
     19          1           0       -4.702180    2.655700   -0.833340
     20          1           0       -5.645660    1.457160    0.074380
     21          1           0        1.362540   -2.819620   -0.023530
 ---------------------------------------------------------------------
                    Distance matrix (angstroms):
                    1          2          3          4          5
     1  C    0.000000
     2  C    1.486851   0.000000
     3  C    2.629668   1.387844   0.000000
     4  C    3.728155   2.256172   1.425196   0.000000
     5  C    3.665573   2.264991   2.281180   1.382791   0.000000
     6  N    2.482694   1.375918   2.228219   2.209437   1.375674
     7  C    4.936031   3.634797   3.702724   2.574449   1.441937
     8  O    5.294258   4.214793   4.610650   3.671051   2.359608
     9  O    5.966408   4.546971   4.218112   2.839247   2.300909
    10  C    7.240280   5.872428   5.636565   4.265729   3.607656
    11  C    3.261892   2.542026   1.453980   2.570876   3.689164
    12  O    4.486583   3.651990   2.363924   2.980380   4.304848
    13  H    1.094904   2.131322   3.315580   4.282251   4.045332
    14  H    1.094931   2.131548   3.322681   4.283723   4.038954
    15  H    1.093213   2.149264   2.829278   4.158044   4.412736
    16  H    4.749440   3.304015   2.238989   1.084449   2.198656
    17  H    2.755500   2.133063   3.208349   3.182403   2.111353
    18  H    7.463677   6.166126   6.061611   4.755216   3.961113
    19  H    7.476995   6.176001   6.065814   4.755832   3.967142
    20  H    8.015266   6.589100   6.152953   4.733167   4.349926
    21  H    2.953018   2.775138   2.177179   3.510666   4.445970
                    6          7          8          9         10
     6  N    0.000000
     7  C    2.466552   0.000000
     8  O    2.868272   1.224414   0.000000
     9  O    3.600335   1.360397   2.297329   0.000000
    10  C    4.793875   2.337897   2.667012   1.426673   0.000000
    11  C    3.643389   5.071361   6.041149   5.393029   6.817952
    12  O    4.579107   5.550227   6.643890   5.576486   6.959588
    13  H    2.797329   5.190599   5.401459   6.297431   7.500523
    14  H    2.788252   5.179731   5.387427   6.287305   7.486899
    15  H    3.398373   5.776553   6.260839   6.681096   8.020245
    16  H    3.259149   2.974165   4.182742   2.711616   4.074331
    17  H    1.013698   2.728162   2.672214   4.034980   5.027632
    18  H    5.015244   2.636597   2.660049   2.081007   1.094576
    19  H    5.026322   2.643375   2.671828   2.080331   1.094510
    20  H    5.634961   3.253954   3.742064   2.049080   1.093524
    21  H    4.083984   5.876916   6.735949   6.349074   7.774903
                   11         12         13         14         15
    11  C    0.000000
    12  O    1.227499   0.000000
    13  H    3.993369   5.193413   0.000000
    14  H    4.007725   5.207808   1.775761   0.000000
    15  H    2.934348   4.132787   1.768669   1.768286   0.000000
    16  H    2.937486   2.887695   5.314753   5.317710   5.066783
    17  H    4.584979   5.570288   2.829387   2.813441   3.810344
    18  H    7.293335   7.507206   7.775150   7.552436   8.293416
    19  H    7.295346   7.505127   7.580288   7.774622   8.308164
    20  H    7.188579   7.145692   8.328044   8.313441   8.713609
    21  H    1.101651   2.022060   3.675313   3.693593   2.287429
                   16         17         18         19         20
    16  H    0.000000
    17  H    4.197039   0.000000
    18  H    4.671253   5.121150   0.000000
    19  H    4.665897   5.135850   1.801600   0.000000
    20  H    4.293693   5.981384   1.774711   1.774995   0.000000
    21  H    4.008112   4.908092   8.206421   8.210709   8.210682
                   21
    21  H    0.000000
 Stoichiometry    C8H9NO3
 Framework group  C1[X(C8H9NO3)]
 Deg. of freedom    57
 Full point group                 C1      NOp   1
 Largest Abelian subgroup         C1      NOp   1
 Largest concise Abelian subgroup C1      NOp   1
                         Standard orientation:                         
 ---------------------------------------------------------------------
 Center     Atomic      Atomic             Coordinates (Angstroms)
 Number     Number       Type             X           Y           Z
 ---------------------------------------------------------------------
      1          6           0        2.660447    2.064566    0.006694
      2          6           0        1.608559    1.013742    0.001459
      3          6           0        1.672885   -0.372608   -0.001034
      4          6           0        0.327784   -0.843649   -0.003816
      5          6           0       -0.522607    0.246740   -0.003419
      6          7           0        0.278299    1.365233   -0.002110
      7          6           0       -1.961951    0.333170   -0.003736
      8          8           0       -2.589904    1.384288   -0.007621
      9          8           0       -2.510641   -0.911650    0.002713
     10          6           0       -3.937295   -0.917290    0.007591
     11          6           0        2.875186   -1.190243   -0.000215
     12          8           0        2.858642   -2.417630   -0.001592
     13          1           0        2.576609    2.692034   -0.886654
     14          1           0        2.555727    2.704524    0.888941
     15          1           0        3.665823    1.635496    0.021933
     16          1           0        0.020737   -1.883721   -0.005413
     17          1           0       -0.083907    2.312013   -0.001969
     18          1           0       -4.320705   -0.418577    0.903346
     19          1           0       -4.325837   -0.441154   -0.898104
     20          1           0       -4.272224   -1.958161    0.021909
     21          1           0        3.832862   -0.645735    0.001632
 ---------------------------------------------------------------------
 Rotational constants (GHZ):           1.6892586           0.5447564           0.4140985
 Standard basis: 6-31G(d) (6D, 7F)
 There are   198 symmetry adapted cartesian basis functions of A   symmetry.
 There are   198 symmetry adapted basis functions of A   symmetry.
   198 basis functions,   372 primitive gaussians,   198 cartesian basis functions
    44 alpha electrons       44 beta electrons
       nuclear repulsion energy       671.1515666172 Hartrees.
 NAtoms=   21 NActive=   21 NUniq=   21 SFac= 1.00D+00 NAtFMM=   60 NAOKFM=F Big=F
 Integral buffers will be    131072 words long.
 Raffenetti 2 integral format.
 Two-electron integral symmetry is turned on.
 Nuclear repulsion after empirical dispersion term =      671.1165951623 Hartrees.
 One-electron integrals computed using PRISM.
 NBasis=   198 RedAO= T EigKep=  5.95D-04  NBF=   198
 NBsUse=   198 1.00D-06 EigRej= -1.00D+00 NBFU=   198
 ExpMin= 1.61D-01 ExpMax= 5.48D+03 ExpMxC= 8.25D+02 IAcc=3 IRadAn=         5 AccDes= 0.00D+00
 Harris functional with IExCor=  402 and IRadAn=       5 diagonalized for initial guess.
 HarFok:  IExCor=  402 AccDes= 0.00D+00 IRadAn=         5 IDoV= 1 UseB2=F ITyADJ=14
 ICtDFT=  3500011 ScaDFX=  1.000000  1.000000  1.000000  1.000000
 FoFCou: FMM=F IPFlag=           0 FMFlag=      100000 FMFlg1=           0
         NFxFlg=           0 DoJE=T BraDBF=F KetDBF=T FulRan=T
         wScrn=  0.000000 ICntrl=       500 IOpCl=  0 I1Cent=   200000004 NGrid=           0
         NMat0=    1 NMatS0=      1 NMatT0=    0 NMatD0=    1 NMtDS0=    0 NMtDT0=    0
 Petite list used in FoFCou.
 Keep R1 ints in memory in canonical form, NReq=198176716.
 Requested convergence on RMS density matrix=1.00D-08 within  32 cycles.
 Requested convergence on MAX density matrix=1.00D-06.
 Requested convergence on             energy=1.00D-06.
 No special actions if energy rises.
 Integral accuracy reduced to 1.0D-05 until final iterations.
 Initial convergence to 1.0D-05 achieved.  Increase integral accuracy.
 SCF Done:  E(RB3LYP) =  -590.734029241     A.U. after   15 cycles
            NFock= 15  Conv=0.42D-08     -V/T= 2.0092
 QCSCF skips out because SCF is already converged.

 **********************************************************************

            Population analysis using the SCF density.

 **********************************************************************

 Orbital symmetries:
       Occupied  (A) (A) (A) (A) (A) (A) (A) (A) (A) (A) (A) (A)
                 (A) (A) (A) (A) (A) (A) (A) (A) (A) (A) (A) (A)
                 (A) (A) (A) (A) (A) (A) (A) (A) (A) (A) (A) (A)
                 (A) (A) (A) (A) (A) (A) (A) (A)
       Virtual   (A) (A) (A) (A) (A) (A) (A) (A) (A) (A) (A) (A)
                 (A) (A) (A) (A) (A) (A) (A) (A) (A) (A) (A) (A)
                 (A) (A) (A) (A) (A) (A) (A) (A) (A) (A) (A) (A)
                 (A) (A) (A) (A) (A) (A) (A) (A) (A) (A) (A) (A)
                 (A) (A) (A) (A) (A) (A) (A) (A) (A) (A) (A) (A)
                 (A) (A) (A) (A) (A) (A) (A) (A) (A) (A) (A) (A)
                 (A) (A) (A) (A) (A) (A) (A) (A) (A) (A) (A) (A)
                 (A) (A) (A) (A) (A) (A) (A) (A) (A) (A) (A) (A)
                 (A) (A) (A) (A) (A) (A) (A) (A) (A) (A) (A) (A)
                 (A) (A) (A) (A) (A) (A) (A) (A) (A) (A) (A) (A)
                 (A) (A) (A) (A) (A) (A) (A) (A) (A) (A) (A) (A)
                 (A) (A) (A) (A) (A) (A) (A) (A) (A) (A) (A) (A)
                 (A) (A) (A) (A) (A) (A) (A) (A) (A) (A)
 The electronic state is 1-A.
 Alpha  occ. eigenvalues --  -19.19672 -19.14051 -19.13213 -14.40306 -10.32306
 Alpha  occ. eigenvalues --  -10.26818 -10.25221 -10.24207 -10.22983 -10.21527
 Alpha  occ. eigenvalues --  -10.19662 -10.19380  -1.10358  -1.02377  -1.01932
 Alpha  occ. eigenvalues --   -0.99987  -0.80789  -0.80013  -0.74889  -0.69913
 Alpha  occ. eigenvalues --   -0.66199  -0.61712  -0.58727  -0.54564  -0.53685
 Alpha  occ. eigenvalues --   -0.49260  -0.48752  -0.47211  -0.46437  -0.45912
 Alpha  occ. eigenvalues --   -0.43710  -0.42139  -0.42021  -0.41548  -0.41420
 Alpha  occ. eigenvalues --   -0.39120  -0.38288  -0.37170  -0.35965  -0.30563
 Alpha  occ. eigenvalues --   -0.28388  -0.26381  -0.24627  -0.23542
 Alpha virt. eigenvalues --   -0.04209  -0.03582   0.07202   0.08400   0.09316
 Alpha virt. eigenvalues --    0.11404   0.11782   0.12383   0.12427   0.15390
 Alpha virt. eigenvalues --    0.16525   0.16574   0.17502   0.17555   0.20118
 Alpha virt. eigenvalues --    0.21956   0.25486   0.26167   0.28731   0.30841
 Alpha virt. eigenvalues --    0.34925   0.38164   0.39336   0.44492   0.45759
 Alpha virt. eigenvalues --    0.49338   0.50212   0.51698   0.52047   0.53021
 Alpha virt. eigenvalues --    0.54070   0.55532   0.57241   0.57325   0.58260
 Alpha virt. eigenvalues --    0.60570   0.61170   0.65259   0.65380   0.65632
 Alpha virt. eigenvalues --    0.69114   0.71988   0.72863   0.73678   0.74219
 Alpha virt. eigenvalues --    0.75281   0.77794   0.80783   0.82557   0.83240
 Alpha virt. eigenvalues --    0.84343   0.84923   0.84995   0.86067   0.86429
 Alpha virt. eigenvalues --    0.89580   0.91456   0.93966   0.94807   0.95479
 Alpha virt. eigenvalues --    0.97719   0.97844   1.00391   1.02660   1.03651
 Alpha virt. eigenvalues --    1.04882   1.08704   1.10207   1.10853   1.18804
 Alpha virt. eigenvalues --    1.22859   1.25153   1.26198   1.29795   1.30060
 Alpha virt. eigenvalues --    1.30624   1.32856   1.35165   1.38101   1.38823
 Alpha virt. eigenvalues --    1.43024   1.46059   1.48256   1.50726   1.53020
 Alpha virt. eigenvalues --    1.53862   1.58220   1.59497   1.66964   1.69417
 Alpha virt. eigenvalues --    1.74428   1.74740   1.76141   1.77816   1.81802
 Alpha virt. eigenvalues --    1.83960   1.85030   1.87873   1.88303   1.89214
 Alpha virt. eigenvalues --    1.92207   1.95183   1.96341   1.99127   2.02863
 Alpha virt. eigenvalues --    2.04616   2.04986   2.08458   2.08999   2.12014
 Alpha virt. eigenvalues --    2.12795   2.16200   2.17609   2.20946   2.22022
 Alpha virt. eigenvalues --    2.27693   2.28716   2.29975   2.31923   2.33293
 Alpha virt. eigenvalues --    2.37040   2.42430   2.44600   2.47003   2.49917
 Alpha virt. eigenvalues --    2.53274   2.56813   2.61474   2.64031   2.65209
 Alpha virt. eigenvalues --    2.70773   2.74816   2.77184   2.78425   2.85656
 Alpha virt. eigenvalues --    2.90380   2.96767   3.00823   3.10248   3.16828
 Alpha virt. eigenvalues --    3.24173   3.27744   3.86474   3.95050   4.03238
 Alpha virt. eigenvalues --    4.06812   4.11365   4.20470   4.24487   4.27760
 Alpha virt. eigenvalues --    4.37005   4.44879   4.63215   4.71853
          Condensed to atoms (all electrons):
               1          2          3          4          5          6
     1  C    5.223032   0.363925  -0.053868   0.011263   0.002400  -0.084833
     2  C    0.363925   4.785836   0.477921  -0.063820  -0.088268   0.315623
     3  C   -0.053868   0.477921   5.179117   0.400496  -0.008959  -0.020061
     4  C    0.011263  -0.063820   0.400496   5.218390   0.452536  -0.098206
     5  C    0.002400  -0.088268  -0.008959   0.452536   4.908330   0.309531
     6  N   -0.084833   0.315623  -0.020061  -0.098206   0.309531   7.000575
     7  C   -0.000277   0.006424   0.005333  -0.048625   0.350470  -0.056377
     8  O   -0.000001   0.000461  -0.000201   0.005450  -0.070147  -0.004116
     9  O    0.000000   0.000036   0.000258   0.003827  -0.095445   0.002526
    10  C   -0.000000  -0.000001   0.000008  -0.000562   0.008202  -0.000126
    11  C   -0.011217  -0.037935   0.265094  -0.047528   0.007683   0.006049
    12  O    0.000034   0.003365  -0.082549   0.003612   0.000927  -0.000051
    13  H    0.361691  -0.027731   0.000476  -0.000192   0.000270  -0.002540
    14  H    0.361757  -0.027628   0.000580  -0.000189   0.000277  -0.002639
    15  H    0.364959  -0.020404  -0.004966  -0.000123  -0.000015   0.003357
    16  H   -0.000105   0.006927  -0.035983   0.367201  -0.041540   0.004882
    17  H   -0.002160  -0.029917   0.004811   0.007333  -0.030014   0.310273
    18  H    0.000000  -0.000000   0.000001   0.000047  -0.000176   0.000001
    19  H    0.000000  -0.000000   0.000001   0.000045  -0.000183   0.000001
    20  H    0.000000  -0.000000  -0.000000  -0.000063   0.000052   0.000001
    21  H    0.000692   0.001161  -0.130506   0.006819   0.000168  -0.000172
               7          8          9         10         11         12
     1  C   -0.000277  -0.000001   0.000000  -0.000000  -0.011217   0.000034
     2  C    0.006424   0.000461   0.000036  -0.000001  -0.037935   0.003365
     3  C    0.005333  -0.000201   0.000258   0.000008   0.265094  -0.082549
     4  C   -0.048625   0.005450   0.003827  -0.000562  -0.047528   0.003612
     5  C    0.350470  -0.070147  -0.095445   0.008202   0.007683   0.000927
     6  N   -0.056377  -0.004116   0.002526  -0.000126   0.006049  -0.000051
     7  C    4.406246   0.518251   0.265703  -0.023063  -0.000183  -0.000005
     8  O    0.518251   8.125939  -0.082282   0.003548   0.000000  -0.000000
     9  O    0.265703  -0.082282   8.240797   0.215509  -0.000003   0.000000
    10  C   -0.023063   0.003548   0.215509   4.887764   0.000000   0.000000
    11  C   -0.000183   0.000000  -0.000003   0.000000   4.727464   0.558535
    12  O   -0.000005  -0.000000   0.000000   0.000000   0.558535   7.992144
    13  H    0.000007  -0.000001  -0.000000   0.000000   0.000186   0.000001
    14  H    0.000006  -0.000001  -0.000000   0.000000   0.000181   0.000001
    15  H    0.000003  -0.000000  -0.000000   0.000000   0.002666  -0.000042
    16  H   -0.004320   0.000029   0.004358  -0.000135  -0.005379   0.004839
    17  H   -0.005276   0.012370   0.000217  -0.000019   0.000014   0.000001
    18  H   -0.005494   0.005693  -0.032568   0.374933  -0.000000   0.000000
    19  H   -0.005405   0.005412  -0.032641   0.375207  -0.000000   0.000000
    20  H    0.004562   0.000604  -0.030178   0.376906   0.000000  -0.000000
    21  H    0.000000  -0.000000   0.000000   0.000000   0.355279  -0.058032
              13         14         15         16         17         18
     1  C    0.361691   0.361757   0.364959  -0.000105  -0.002160   0.000000
     2  C   -0.027731  -0.027628  -0.020404   0.006927  -0.029917  -0.000000
     3  C    0.000476   0.000580  -0.004966  -0.035983   0.004811   0.000001
     4  C   -0.000192  -0.000189  -0.000123   0.367201   0.007333   0.000047
     5  C    0.000270   0.000277  -0.000015  -0.041540  -0.030014  -0.000176
     6  N   -0.002540  -0.002639   0.003357   0.004882   0.310273   0.000001
     7  C    0.000007   0.000006   0.000003  -0.004320  -0.005276  -0.005494
     8  O   -0.000001  -0.000001  -0.000000   0.000029   0.012370   0.005693
     9  O   -0.000000  -0.000000  -0.000000   0.004358   0.000217  -0.032568
    10  C    0.000000   0.000000   0.000000  -0.000135  -0.000019   0.374933
    11  C    0.000186   0.000181   0.002666  -0.005379   0.000014  -0.000000
    12  O    0.000001   0.000001  -0.000042   0.004839   0.000001   0.000000
    13  H    0.544639  -0.032453  -0.024307   0.000003   0.001215  -0.000000
    14  H   -0.032453   0.544824  -0.024275   0.000003   0.001294   0.000000
    15  H   -0.024307  -0.024275   0.512613  -0.000004  -0.000075   0.000000
    16  H    0.000003   0.000003  -0.000004   0.527353  -0.000101   0.000007
    17  H    0.001215   0.001294  -0.000075  -0.000101   0.385392  -0.000001
    18  H   -0.000000   0.000000   0.000000   0.000007  -0.000001   0.557184
    19  H    0.000000  -0.000000   0.000000   0.000007  -0.000001  -0.035229
    20  H    0.000000   0.000000  -0.000000  -0.000005  -0.000000  -0.033761
    21  H   -0.000054  -0.000048   0.007157   0.000153   0.000007   0.000000
              19         20         21
     1  C    0.000000   0.000000   0.000692
     2  C   -0.000000  -0.000000   0.001161
     3  C    0.000001  -0.000000  -0.130506
     4  C    0.000045  -0.000063   0.006819
     5  C   -0.000183   0.000052   0.000168
     6  N    0.000001   0.000001  -0.000172
     7  C   -0.005405   0.004562   0.000000
     8  O    0.005412   0.000604  -0.000000
     9  O   -0.032641  -0.030178   0.000000
    10  C    0.375207   0.376906   0.000000
    11  C   -0.000000   0.000000   0.355279
    12  O    0.000000  -0.000000  -0.058032
    13  H    0.000000   0.000000  -0.000054
    14  H   -0.000000   0.000000  -0.000048
    15  H    0.000000  -0.000000   0.007157
    16  H    0.000007  -0.000005   0.000153
    17  H   -0.000001  -0.000000   0.000007
    18  H   -0.035229  -0.033761   0.000000
    19  H    0.557530  -0.033884   0.000000
    20  H   -0.033884   0.548655   0.000000
    21  H    0.000000   0.000000   0.721252
 Mulliken charges:
               1
     1  C   -0.537292
     2  C    0.334025
     3  C    0.002997
     4  C   -0.217712
     5  C    0.293899
     6  N   -0.683699
     7  C    0.592019
     8  O   -0.521009
     9  O   -0.460114
    10  C   -0.218171
    11  C    0.179095
    12  O   -0.422780
    13  H    0.178790
    14  H    0.178310
    15  H    0.183454
    16  H    0.171811
    17  H    0.344636
    18  H    0.169364
    19  H    0.169141
    20  H    0.167111
    21  H    0.096125
 Sum of Mulliken charges =   0.00000
 Mulliken charges with hydrogens summed into heavy atoms:
               1
     1  C    0.003262
     2  C    0.334025
     3  C    0.002997
     4  C   -0.045900
     5  C    0.293899
     6  N   -0.339062
     7  C    0.592019
     8  O   -0.521009
     9  O   -0.460114
    10  C    0.287445
    11  C    0.275219
    12  O   -0.422780
 Electronic spatial extent (au):  <R**2>=           2569.2337
 Charge=              0.0000 electrons
 Dipole moment (field-independent basis, Debye):
    X=             -0.3583    Y=              3.4516    Z=              0.0200  Tot=              3.4702
 Quadrupole moment (field-independent basis, Debye-Ang):
   XX=            -63.8113   YY=            -72.1320   ZZ=            -68.5540
   XY=             18.8016   XZ=             -0.0361   YZ=              0.0201
 Traceless Quadrupole moment (field-independent basis, Debye-Ang):
   XX=              4.3545   YY=             -3.9662   ZZ=             -0.3882
   XY=             18.8016   XZ=             -0.0361   YZ=              0.0201
 Octapole moment (field-independent basis, Debye-Ang**2):
  XXX=            -41.8023  YYY=             31.7410  ZZZ=             -0.0323  XYY=            -18.0233
  XXY=              3.4225  XXZ=              0.2937  XZZ=             -6.2324  YZZ=             -0.2441
  YYZ=              0.0811  XYZ=             -0.0392
 Hexadecapole moment (field-independent basis, Debye-Ang**3):
 XXXX=          -2182.6302 YYYY=           -799.2575 ZZZZ=            -76.0369 XXXY=            173.1195
 XXXZ=             -0.4968 YYYX=             86.3145 YYYZ=             -0.0385 ZZZX=             -0.0009
 ZZZY=             -0.0406 XXYY=           -608.1965 XXZZ=           -400.1208 YYZZ=           -140.6083
 XXYZ=             -0.0361 YYXZ=             -0.1682 ZZXY=             -7.8723
 N-N= 6.711165951623D+02 E-N=-2.720345123082D+03  KE= 5.853679383287D+02
 Calling FoFJK, ICntrl=      2127 FMM=F ISym2X=0 I1Cent= 0 IOpClX= 0 NMat=1 NMatS=1 NMatT=0.
 ***** Axes restored to original set *****
 -------------------------------------------------------------------
 Center     Atomic                   Forces (Hartrees/Bohr)
 Number     Number              X              Y              Z
 -------------------------------------------------------------------
      1        6           0.002270668   -0.001103565   -0.000055057
      2        6          -0.000525446    0.020326400    0.000176663
      3        6          -0.007732812    0.001425228    0.000086174
      4        6          -0.011168664   -0.005362304    0.000026588
      5        6           0.003715819   -0.021964378   -0.000512428
      6        7           0.016697729   -0.001467903    0.000149721
      7        6          -0.004282462    0.006733278    0.000141005
      8        8          -0.003741902   -0.008052604   -0.000028309
      9        8           0.003704816    0.006335119    0.000129784
     10        6          -0.009267828    0.003284274    0.000119312
     11        6          -0.015695036   -0.008034282   -0.000045382
     12        8           0.008426405    0.006615716    0.000053815
     13        1           0.002318267    0.000854855   -0.000283938
     14        1           0.002199766    0.000855371    0.000243364
     15        1          -0.001390298    0.000490434   -0.000047521
     16        1           0.003220430    0.001356212    0.000027992
     17        1          -0.001675568   -0.001641869    0.000038273
     18        1           0.001676315    0.002302078   -0.002591436
     19        1           0.001642794    0.002350425    0.002521147
     20        1           0.004255574   -0.004385309   -0.000139198
     21        1           0.005351432   -0.000917175   -0.000010571
 -------------------------------------------------------------------
 Cartesian Forces:  Max     0.021964378 RMS     0.005988608

 GradGradGradGradGradGradGradGradGradGradGradGradGradGradGradGradGradGrad
 Berny optimization.
 FormGI is forming the generalized inverse of G from B-inverse, IUseBI=4.
 Internal  Forces:  Max     0.014380820 RMS     0.004201020
 Search for a local minimum.
 Step number   1 out of a maximum of  104
 All quantities printed in internal units (Hartrees-Bohrs-Radians)
 Mixed Optimization -- RFO/linear search
 Second derivative matrix not updated -- first step.
 ITU=  0
     Eigenvalues ---    0.00940   0.01339   0.01375   0.01375   0.01534
     Eigenvalues ---    0.01565   0.01765   0.01771   0.01891   0.02010
     Eigenvalues ---    0.02012   0.02093   0.02152   0.02216   0.07278
     Eigenvalues ---    0.07437   0.10112   0.10501   0.16000   0.16000
     Eigenvalues ---    0.16000   0.16000   0.16000   0.16000   0.16000
     Eigenvalues ---    0.16000   0.16000   0.22000   0.23425   0.24125
     Eigenvalues ---    0.25000   0.25000   0.25000   0.25000   0.25000
     Eigenvalues ---    0.25000   0.33500   0.33797   0.34249   0.34252
     Eigenvalues ---    0.34289   0.34297   0.34409   0.34444   0.35462
     Eigenvalues ---    0.37728   0.38964   0.39321   0.41471   0.43129
     Eigenvalues ---    0.45359   0.46661   0.48502   0.49522   0.52867
     Eigenvalues ---    0.92136   0.93454
 RFO step:  Lambda=-5.05253921D-03 EMin= 9.39880943D-03
 Linear search not attempted -- first point.
 Iteration  1 RMS(Cart)=  0.04701961 RMS(Int)=  0.00054319
 Iteration  2 RMS(Cart)=  0.00142300 RMS(Int)=  0.00004157
 Iteration  3 RMS(Cart)=  0.00000016 RMS(Int)=  0.00004157
 Variable       Old X    -DE/DX   Delta X   Delta X   Delta X     New X
                                 (Linear)    (Quad)   (Total)
    R1        2.80974   0.00547   0.00000   0.01594   0.01594   2.82568
    R2        2.06907   0.00138   0.00000   0.00396   0.00396   2.07303
    R3        2.06912   0.00130   0.00000   0.00375   0.00375   2.07287
    R4        2.06587  -0.00106   0.00000  -0.00302  -0.00302   2.06285
    R5        2.62264   0.01407   0.00000   0.02938   0.02936   2.65200
    R6        2.60011  -0.01438   0.00000  -0.02932  -0.02932   2.57079
    R7        2.69323  -0.00088   0.00000  -0.00104  -0.00105   2.69218
    R8        2.74762   0.00175   0.00000   0.00458   0.00458   2.75221
    R9        2.61310  -0.00350   0.00000  -0.00677  -0.00675   2.60634
   R10        2.04931  -0.00344   0.00000  -0.00956  -0.00956   2.03975
   R11        2.59965   0.01022   0.00000   0.01959   0.01962   2.61926
   R12        2.72487   0.01028   0.00000   0.02581   0.02581   2.75067
   R13        1.91561  -0.00211   0.00000  -0.00460  -0.00460   1.91101
   R14        2.31381  -0.00857   0.00000  -0.00912  -0.00912   2.30469
   R15        2.57078  -0.00609   0.00000  -0.01141  -0.01141   2.55937
   R16        2.69602   0.00359   0.00000   0.00855   0.00855   2.70457
   R17        2.06845  -0.00079   0.00000  -0.00226  -0.00226   2.06619
   R18        2.06832  -0.00071   0.00000  -0.00203  -0.00203   2.06630
   R19        2.06646  -0.00133   0.00000  -0.00381  -0.00381   2.06265
   R20        2.31964  -0.01053   0.00000  -0.01137  -0.01137   2.30827
   R21        2.08182   0.00543   0.00000   0.01596   0.01596   2.09778
    A1        1.92621   0.00279   0.00000   0.01754   0.01747   1.94368
    A2        1.92650   0.00263   0.00000   0.01662   0.01656   1.94305
    A3        1.95334  -0.00253   0.00000  -0.01668  -0.01661   1.93673
    A4        1.89141  -0.00227   0.00000  -0.01111  -0.01130   1.88011
    A5        1.88254  -0.00043   0.00000  -0.00392  -0.00386   1.87868
    A6        1.88191  -0.00034   0.00000  -0.00333  -0.00327   1.87864
    A7        2.30932  -0.00030   0.00000  -0.00114  -0.00113   2.30819
    A8        2.09838   0.00344   0.00000   0.01353   0.01354   2.11192
    A9        1.87548  -0.00314   0.00000  -0.01238  -0.01241   1.86307
   A10        1.86128   0.00562   0.00000   0.02492   0.02488   1.88616
   A11        2.21438  -0.00181   0.00000  -0.00856  -0.00854   2.20584
   A12        2.20753  -0.00380   0.00000  -0.01636  -0.01634   2.19119
   A13        1.89631  -0.00851   0.00000  -0.03427  -0.03427   1.86205
   A14        2.19470   0.00363   0.00000   0.01333   0.01332   2.20803
   A15        2.19217   0.00489   0.00000   0.02095   0.02094   2.21311
   A16        1.85781   0.00703   0.00000   0.02792   0.02796   1.88577
   A17        2.29313   0.00468   0.00000   0.01817   0.01815   2.31129
   A18        2.13224  -0.01171   0.00000  -0.04609  -0.04611   2.08613
   A19        1.93390  -0.00099   0.00000  -0.00618  -0.00616   1.92773
   A20        2.19450   0.00148   0.00000   0.00904   0.00903   2.20354
   A21        2.15478  -0.00049   0.00000  -0.00286  -0.00287   2.15191
   A22        2.16929  -0.00187   0.00000  -0.00734  -0.00734   2.16195
   A23        1.92597   0.00912   0.00000   0.03578   0.03577   1.96175
   A24        2.18792  -0.00725   0.00000  -0.02843  -0.02844   2.15949
   A25        1.98992   0.00430   0.00000   0.01687   0.01687   2.00679
   A26        1.92973   0.00129   0.00000   0.00656   0.00659   1.93632
   A27        1.92884   0.00146   0.00000   0.00756   0.00760   1.93643
   A28        1.88608  -0.00807   0.00000  -0.04640  -0.04634   1.83974
   A29        1.93332  -0.00325   0.00000  -0.02423  -0.02420   1.90912
   A30        1.89197   0.00434   0.00000   0.02877   0.02883   1.92080
   A31        1.89250   0.00423   0.00000   0.02809   0.02815   1.92065
   A32        2.15453   0.00310   0.00000   0.01377   0.01377   2.16831
   A33        2.02739  -0.00167   0.00000  -0.00763  -0.00763   2.01975
   A34        2.10127  -0.00143   0.00000  -0.00614  -0.00614   2.09513
    D1        2.08387  -0.00031   0.00000  -0.00342  -0.00353   2.08035
    D2       -1.05754  -0.00032   0.00000  -0.00405  -0.00415  -1.06169
    D3       -2.10895   0.00033   0.00000   0.00462   0.00472  -2.10423
    D4        1.03282   0.00032   0.00000   0.00399   0.00410   1.03692
    D5       -0.01284   0.00001   0.00000   0.00067   0.00066  -0.01217
    D6        3.12893   0.00000   0.00000   0.00003   0.00004   3.12897
    D7        3.13997   0.00005   0.00000   0.00229   0.00234  -3.14088
    D8       -0.00107   0.00003   0.00000   0.00120   0.00123   0.00016
    D9       -0.00178   0.00007   0.00000   0.00287   0.00290   0.00111
   D10        3.14036   0.00005   0.00000   0.00178   0.00179  -3.14104
   D11       -3.13906  -0.00011   0.00000  -0.00403  -0.00398   3.14015
   D12        0.00053  -0.00003   0.00000  -0.00077  -0.00071  -0.00019
   D13        0.00267  -0.00012   0.00000  -0.00452  -0.00446  -0.00179
   D14       -3.14093  -0.00004   0.00000  -0.00126  -0.00119   3.14106
   D15        0.00033  -0.00001   0.00000  -0.00036  -0.00037  -0.00004
   D16       -3.14071  -0.00003   0.00000  -0.00131  -0.00130   3.14117
   D17        3.14137   0.00001   0.00000   0.00073   0.00073  -3.14108
   D18        0.00033  -0.00001   0.00000  -0.00023  -0.00020   0.00013
   D19        3.14064   0.00003   0.00000   0.00161   0.00162  -3.14093
   D20       -0.00108   0.00002   0.00000   0.00112   0.00112   0.00004
   D21       -0.00029   0.00000   0.00000   0.00031   0.00031   0.00001
   D22        3.14117  -0.00000   0.00000  -0.00019  -0.00019   3.14098
   D23        0.00125  -0.00006   0.00000  -0.00230  -0.00228  -0.00103
   D24       -3.13998  -0.00005   0.00000  -0.00178  -0.00173   3.14147
   D25       -3.14089  -0.00004   0.00000  -0.00135  -0.00135   3.14094
   D26        0.00106  -0.00003   0.00000  -0.00083  -0.00080   0.00026
   D27       -0.00243   0.00010   0.00000   0.00418   0.00423   0.00180
   D28        3.14111   0.00001   0.00000   0.00099   0.00106  -3.14101
   D29        3.13884   0.00009   0.00000   0.00373   0.00377  -3.14057
   D30       -0.00080   0.00001   0.00000   0.00054   0.00061  -0.00019
   D31       -3.13733  -0.00002   0.00000  -0.00110  -0.00110  -3.13842
   D32        0.00571  -0.00010   0.00000  -0.00493  -0.00495   0.00076
   D33        0.00468  -0.00001   0.00000  -0.00052  -0.00051   0.00417
   D34       -3.13547  -0.00009   0.00000  -0.00436  -0.00436  -3.13983
   D35        3.13797   0.00012   0.00000   0.00454   0.00452  -3.14070
   D36       -0.00216   0.00002   0.00000   0.00063   0.00065  -0.00151
   D37       -1.06454   0.00111   0.00000   0.00968   0.00966  -1.05489
   D38        1.08240  -0.00113   0.00000  -0.01138  -0.01135   1.07105
   D39       -3.13260  -0.00002   0.00000  -0.00096  -0.00097  -3.13357
         Item               Value     Threshold  Converged?
 Maximum Force            0.014381     0.000450     NO 
 RMS     Force            0.004201     0.000300     NO 
 Maximum Displacement     0.156439     0.001800     NO 
 RMS     Displacement     0.046920     0.001200     NO 
 Predicted change in Energy=-2.574560D-03
 GradGradGradGradGradGradGradGradGradGradGradGradGradGradGradGradGradGrad

                          Input orientation:                          
 ---------------------------------------------------------------------
 Center     Atomic      Atomic             Coordinates (Angstroms)
 Number     Number       Type             X           Y           Z
 ---------------------------------------------------------------------
      1          6           0        2.238146    0.024534    0.010220
      2          6           0        0.748524   -0.105411    0.013969
      3          6           0       -0.101252   -1.222193    0.001706
      4          6           0       -1.446662   -0.753832    0.012217
      5          6           0       -1.386256    0.623940    0.030520
      6          7           0       -0.050850    0.995199    0.032668
      7          6           0       -2.416640    1.651937    0.047427
      8          8           0       -2.182553    2.848787    0.059567
      9          8           0       -3.666417    1.130071    0.045158
     10          6           0       -4.724028    2.094208    0.060179
     11          6           0        0.308684   -2.619562   -0.018940
     12          8           0       -0.466905   -3.563152   -0.029767
     13          1           0        2.589670    0.567979   -0.875506
     14          1           0        2.593750    0.564609    0.896273
     15          1           0        2.715846   -0.957004    0.007295
     16          1           0       -2.338427   -1.361944    0.006529
     17          1           0        0.257602    1.958190    0.045391
     18          1           0       -4.670575    2.719032    0.955843
     19          1           0       -4.686128    2.729972   -0.828625
     20          1           0       -5.647248    1.511942    0.064573
     21          1           0        1.403948   -2.800324   -0.025317
 ---------------------------------------------------------------------
                    Distance matrix (angstroms):
                    1          2          3          4          5
     1  C    0.000000
     2  C    1.495284   0.000000
     3  C    2.650884   1.403379   0.000000
     4  C    3.766122   2.288951   1.424641   0.000000
     5  C    3.673689   2.255995   2.249505   1.379217   0.000000
     6  N    2.486402   1.360401   2.218181   2.237816   1.386054
     7  C    4.931212   3.620449   3.691034   2.594189   1.455594
     8  O    5.246086   4.161800   4.572531   3.677314   2.363234
     9  O    6.007271   4.584659   4.271468   2.911612   2.335705
    10  C    7.263464   5.898244   5.689639   4.342206   3.647367
    11  C    3.273365   2.552547   1.456404   2.561867   3.659996
    12  O    4.493372   3.665399   2.369553   2.975562   4.287258
    13  H    1.097001   2.152774   3.348922   4.339033   4.078234
    14  H    1.096916   2.152266   3.354989   4.341057   4.073512
    15  H    1.091615   2.143738   2.829559   4.167467   4.396267
    16  H    4.781983   3.332897   2.241541   1.079388   2.202486
    17  H    2.768179   2.121424   3.200862   3.203229   2.117242
    18  H    7.475624   6.183142   6.109202   4.831648   4.004046
    19  H    7.481219   6.187472   6.109840   4.830947   4.007825
    20  H    8.024636   6.597295   6.183649   4.772986   4.352673
    21  H    2.945670   2.773748   2.181021   3.509347   4.417458
                    6          7          8          9         10
     6  N    0.000000
     7  C    2.455297   0.000000
     8  O    2.825008   1.219587   0.000000
     9  O    3.618104   1.354361   2.270692   0.000000
    10  C    4.800747   2.349427   2.651129   1.431197   0.000000
    11  C    3.632963   5.067297   6.009597   5.464914   6.895946
    12  O    4.577724   5.568175   6.638101   5.680566   7.080741
    13  H    2.824825   5.204796   5.371271   6.348400   7.529611
    14  H    2.815161   5.196810   5.360095   6.343015   7.522540
    15  H    3.386199   5.757655   6.203313   6.714953   8.041419
    16  H    3.284786   3.015173   4.213949   2.824037   4.199875
    17  H    1.011265   2.691722   2.597638   4.010450   4.983509
    18  H    5.016544   2.654079   2.647716   2.088654   1.093379
    19  H    5.023651   2.660865   2.659114   2.088778   1.093437
    20  H    5.620295   3.233686   3.713663   2.017398   1.091508
    21  H    4.065192   5.867266   6.691983   6.415728   7.843203
                   11         12         13         14         15
    11  C    0.000000
    12  O    1.221482   0.000000
    13  H    4.012109   5.208087   0.000000
    14  H    4.024685   5.221453   1.771787   0.000000
    15  H    2.925614   4.113793   1.766587   1.766492   0.000000
    16  H    2.930777   2.889503   5.365513   5.369323   5.070470
    17  H    4.578488   5.569181   2.866928   2.850202   3.813498
    18  H    7.365039   7.622867   7.790508   7.577302   8.304950
    19  H    7.363508   7.618624   7.590365   7.788498   8.311545
    20  H    7.249098   7.252684   8.343958   8.336859   8.720111
    21  H    1.110098   2.020400   3.670725   3.686154   2.262735
                   16         17         18         19         20
    16  H    0.000000
    17  H    4.214756   0.000000
    18  H    4.795255   5.068997   0.000000
    19  H    4.790925   5.079373   1.784569   0.000000
    20  H    4.383022   5.921720   1.790340   1.790294   0.000000
    21  H    4.009404   4.895156   8.265942   8.265501   8.265778
                   21
    21  H    0.000000
 Stoichiometry    C8H9NO3
 Framework group  C1[X(C8H9NO3)]
 Deg. of freedom    57
 Full point group                 C1      NOp   1
 Largest Abelian subgroup         C1      NOp   1
 Largest concise Abelian subgroup C1      NOp   1
                         Standard orientation:                         
 ---------------------------------------------------------------------
 Center     Atomic      Atomic             Coordinates (Angstroms)
 Number     Number       Type             X           Y           Z
 ---------------------------------------------------------------------
      1          6           0        2.638492    2.095629   -0.000393
      2          6           0        1.592563    1.027030    0.000394
      3          6           0        1.674924   -0.373930    0.000373
      4          6           0        0.348809   -0.894525    0.000382
      5          6           0       -0.502613    0.190519    0.000465
      6          7           0        0.269096    1.341870    0.001864
      7          6           0       -1.954099    0.299811    0.000384
      8          8           0       -2.555846    1.360604   -0.002730
      9          8           0       -2.562762   -0.910074    0.001148
     10          6           0       -3.993310   -0.866990   -0.000051
     11          6           0        2.896081   -1.167585   -0.000307
     12          8           0        2.921964   -2.388793   -0.000970
     13          1           0        2.561260    2.729780   -0.892189
     14          1           0        2.546894    2.744208    0.879481
     15          1           0        3.640134    1.661809    0.011303
     16          1           0        0.068038   -1.936756    0.000007
     17          1           0       -0.123956    2.273624    0.002691
     18          1           0       -4.369502   -0.350774    0.887348
     19          1           0       -4.368631   -0.367030   -0.897146
     20          1           0       -4.314893   -1.910008    0.009211
     21          1           0        3.845056   -0.591595   -0.000814
 ---------------------------------------------------------------------
 Rotational constants (GHZ):           1.7081655           0.5375363           0.4109897
 Standard basis: 6-31G(d) (6D, 7F)
 There are   198 symmetry adapted cartesian basis functions of A   symmetry.
 There are   198 symmetry adapted basis functions of A   symmetry.
   198 basis functions,   372 primitive gaussians,   198 cartesian basis functions
    44 alpha electrons       44 beta electrons
       nuclear repulsion energy       670.1746206153 Hartrees.
 NAtoms=   21 NActive=   21 NUniq=   21 SFac= 1.00D+00 NAtFMM=   60 NAOKFM=F Big=F
 Integral buffers will be    131072 words long.
 Raffenetti 2 integral format.
 Two-electron integral symmetry is turned on.
 Nuclear repulsion after empirical dispersion term =      670.1397446513 Hartrees.
 One-electron integrals computed using PRISM.
 NBasis=   198 RedAO= T EigKep=  6.11D-04  NBF=   198
 NBsUse=   198 1.00D-06 EigRej= -1.00D+00 NBFU=   198
 Initial guess from the checkpoint file:  "JID_2656.chk"
 B after Tr=    -0.000000   -0.000000    0.000000
         Rot=    0.999999    0.000005    0.000011   -0.001513 Ang=   0.17 deg.
 ExpMin= 1.61D-01 ExpMax= 5.48D+03 ExpMxC= 8.25D+02 IAcc=2 IRadAn=         4 AccDes= 0.00D+00
 Harris functional with IExCor=  402 and IRadAn=       4 diagonalized for initial guess.
 HarFok:  IExCor=  402 AccDes= 0.00D+00 IRadAn=         4 IDoV= 1 UseB2=F ITyADJ=14
 ICtDFT=  3500011 ScaDFX=  1.000000  1.000000  1.000000  1.000000
 FoFCou: FMM=F IPFlag=           0 FMFlag=      100000 FMFlg1=           0
         NFxFlg=           0 DoJE=T BraDBF=F KetDBF=T FulRan=T
         wScrn=  0.000000 ICntrl=       500 IOpCl=  0 I1Cent=   200000004 NGrid=           0
         NMat0=    1 NMatS0=      1 NMatT0=    0 NMatD0=    1 NMtDS0=    0 NMtDT0=    0
 Petite list used in FoFCou.
 Keep R1 ints in memory in canonical form, NReq=198176716.
 Requested convergence on RMS density matrix=1.00D-08 within  32 cycles.
 Requested convergence on MAX density matrix=1.00D-06.
 Requested convergence on             energy=1.00D-06.
 No special actions if energy rises.
 Integral accuracy reduced to 1.0D-05 until final iterations.
 Initial convergence to 1.0D-05 achieved.  Increase integral accuracy.
 SCF Done:  E(RB3LYP) =  -590.736618347     A.U. after   12 cycles
            NFock= 12  Conv=0.43D-08     -V/T= 2.0092
 QCSCF skips out because SCF is already converged.
 Calling FoFJK, ICntrl=      2127 FMM=F ISym2X=0 I1Cent= 0 IOpClX= 0 NMat=1 NMatS=1 NMatT=0.
 ***** Axes restored to original set *****
 -------------------------------------------------------------------
 Center     Atomic                   Forces (Hartrees/Bohr)
 Number     Number              X              Y              Z
 -------------------------------------------------------------------
      1        6          -0.000320095   -0.001650475   -0.000008486
      2        6          -0.001369055    0.004231469    0.000266470
      3        6           0.001607605   -0.003316120   -0.000128414
      4        6           0.003509077    0.003351948    0.000004660
      5        6          -0.004805069   -0.002805462    0.000222271
      6        7           0.001625617   -0.002483042   -0.000235313
      7        6          -0.004299154    0.001209384   -0.000303098
      8        8           0.002012350    0.001273187    0.000159750
      9        8           0.005452032   -0.000562652    0.000067929
     10        6          -0.004004920   -0.000189717    0.000073181
     11        6          -0.002687517   -0.001990473   -0.000099613
     12        8           0.001173820    0.001480065    0.000045633
     13        1          -0.000211782    0.000075436    0.000057057
     14        1          -0.000187896    0.000091083   -0.000051930
     15        1          -0.000151151   -0.000228629   -0.000012269
     16        1           0.000497998   -0.000084979   -0.000004065
     17        1          -0.001862874    0.000629567   -0.000030230
     18        1           0.000950964    0.000396072   -0.000446189
     19        1           0.000988658    0.000384668    0.000423629
     20        1           0.000741830    0.000005632   -0.000028248
     21        1           0.001339563    0.000183039    0.000027276
 -------------------------------------------------------------------
 Cartesian Forces:  Max     0.005452032 RMS     0.001761873

 GradGradGradGradGradGradGradGradGradGradGradGradGradGradGradGradGradGrad
 Berny optimization.
 Using GEDIIS/GDIIS optimizer.
 FormGI is forming the generalized inverse of G from B-inverse, IUseBI=4.
 Internal  Forces:  Max     0.005112616 RMS     0.001119110
 Search for a local minimum.
 Step number   2 out of a maximum of  104
 All quantities printed in internal units (Hartrees-Bohrs-Radians)
 Mixed Optimization -- RFO/linear search
 Update second derivatives using D2CorX and points    1    2
 DE= -2.59D-03 DEPred=-2.57D-03 R= 1.01D+00
 TightC=F SS=  1.41D+00  RLast= 1.38D-01 DXNew= 5.0454D-01 4.1393D-01
 Trust test= 1.01D+00 RLast= 1.38D-01 DXMaxT set to 4.14D-01
 ITU=  1  0
 Use linear search instead of GDIIS.
     Eigenvalues ---    0.00940   0.01339   0.01375   0.01375   0.01534
     Eigenvalues ---    0.01560   0.01761   0.01775   0.01897   0.02012
     Eigenvalues ---    0.02013   0.02096   0.02155   0.02216   0.07274
     Eigenvalues ---    0.07319   0.09882   0.10687   0.14919   0.16000
     Eigenvalues ---    0.16000   0.16000   0.16000   0.16000   0.16000
     Eigenvalues ---    0.16000   0.16407   0.21497   0.22323   0.23752
     Eigenvalues ---    0.24541   0.25000   0.25000   0.25000   0.25000
     Eigenvalues ---    0.28975   0.33319   0.34148   0.34250   0.34285
     Eigenvalues ---    0.34295   0.34338   0.34399   0.34509   0.35466
     Eigenvalues ---    0.37717   0.38910   0.39461   0.41329   0.43049
     Eigenvalues ---    0.45368   0.46597   0.48574   0.49581   0.53273
     Eigenvalues ---    0.91532   0.94224
 RFO step:  Lambda=-4.77906143D-04 EMin= 9.39881350D-03
 Quartic linear search produced a step of  0.02976.
 Iteration  1 RMS(Cart)=  0.01900752 RMS(Int)=  0.00009582
 Iteration  2 RMS(Cart)=  0.00018116 RMS(Int)=  0.00001332
 Iteration  3 RMS(Cart)=  0.00000001 RMS(Int)=  0.00001332
 Variable       Old X    -DE/DX   Delta X   Delta X   Delta X     New X
                                 (Linear)    (Quad)   (Total)
    R1        2.82568  -0.00102   0.00047  -0.00206  -0.00159   2.82409
    R2        2.07303  -0.00008   0.00012   0.00003   0.00014   2.07317
    R3        2.07287  -0.00006   0.00011   0.00007   0.00018   2.07305
    R4        2.06285   0.00014  -0.00009   0.00022   0.00013   2.06299
    R5        2.65200  -0.00007   0.00087   0.00194   0.00281   2.65482
    R6        2.57079  -0.00117  -0.00087  -0.00432  -0.00520   2.56559
    R7        2.69218   0.00034  -0.00003   0.00092   0.00089   2.69307
    R8        2.75221   0.00027   0.00014   0.00102   0.00116   2.75336
    R9        2.60634  -0.00112  -0.00020  -0.00291  -0.00311   2.60323
   R10        2.03975  -0.00036  -0.00028  -0.00167  -0.00196   2.03779
   R11        2.61926  -0.00076   0.00058  -0.00049   0.00009   2.61935
   R12        2.75067   0.00047   0.00077   0.00290   0.00367   2.75435
   R13        1.91101   0.00003  -0.00014  -0.00023  -0.00036   1.91065
   R14        2.30469   0.00164  -0.00027   0.00121   0.00094   2.30563
   R15        2.55937  -0.00382  -0.00034  -0.00818  -0.00852   2.55085
   R16        2.70457   0.00138   0.00025   0.00398   0.00423   2.70880
   R17        2.06619  -0.00009  -0.00007  -0.00042  -0.00049   2.06570
   R18        2.06630  -0.00009  -0.00006  -0.00039  -0.00045   2.06585
   R19        2.06265  -0.00063  -0.00011  -0.00213  -0.00224   2.06041
   R20        2.30827  -0.00189  -0.00034  -0.00285  -0.00318   2.30508
   R21        2.09778   0.00129   0.00048   0.00499   0.00547   2.10325
    A1        1.94368  -0.00020   0.00052  -0.00035   0.00017   1.94385
    A2        1.94305  -0.00016   0.00049  -0.00006   0.00043   1.94349
    A3        1.93673  -0.00022  -0.00049  -0.00220  -0.00269   1.93404
    A4        1.88011   0.00011  -0.00034  -0.00053  -0.00087   1.87924
    A5        1.87868   0.00025  -0.00011   0.00155   0.00144   1.88012
    A6        1.87864   0.00025  -0.00010   0.00175   0.00165   1.88029
    A7        2.30819  -0.00258  -0.00003  -0.01068  -0.01071   2.29748
    A8        2.11192   0.00200   0.00040   0.00908   0.00949   2.12141
    A9        1.86307   0.00058  -0.00037   0.00160   0.00123   1.86429
   A10        1.88616  -0.00198   0.00074  -0.00627  -0.00553   1.88063
   A11        2.20584   0.00097  -0.00025   0.00330   0.00304   2.20888
   A12        2.19119   0.00101  -0.00049   0.00298   0.00249   2.19368
   A13        1.86205   0.00194  -0.00102   0.00650   0.00548   1.86753
   A14        2.20803  -0.00133   0.00040  -0.00579  -0.00540   2.20263
   A15        2.21311  -0.00061   0.00062  -0.00071  -0.00009   2.21302
   A16        1.88577  -0.00152   0.00083  -0.00529  -0.00446   1.88131
   A17        2.31129   0.00511   0.00054   0.02261   0.02315   2.33443
   A18        2.08613  -0.00359  -0.00137  -0.01732  -0.01869   2.06744
   A19        1.92773   0.00098  -0.00018   0.00347   0.00328   1.93101
   A20        2.20354   0.00139   0.00027   0.01070   0.01097   2.21451
   A21        2.15191  -0.00237  -0.00009  -0.01417  -0.01425   2.13766
   A22        2.16195  -0.00140  -0.00022  -0.00623  -0.00646   2.15549
   A23        1.96175  -0.00118   0.00106  -0.00254  -0.00149   1.96026
   A24        2.15949   0.00258  -0.00085   0.00879   0.00794   2.16742
   A25        2.00679  -0.00022   0.00050   0.00018   0.00068   2.00747
   A26        1.93632  -0.00073   0.00020  -0.00530  -0.00514   1.93118
   A27        1.93643  -0.00080   0.00023  -0.00572  -0.00552   1.93091
   A28        1.83974   0.00014  -0.00138  -0.00004  -0.00143   1.83831
   A29        1.90912  -0.00047  -0.00072  -0.00822  -0.00900   1.90012
   A30        1.92080   0.00096   0.00086   0.01012   0.01097   1.93176
   A31        1.92065   0.00095   0.00084   0.00991   0.01074   1.93139
   A32        2.16831   0.00023   0.00041   0.00195   0.00236   2.17066
   A33        2.01975  -0.00053  -0.00023  -0.00371  -0.00394   2.01582
   A34        2.09513   0.00030  -0.00018   0.00176   0.00157   2.09670
    D1        2.08035   0.00003  -0.00010  -0.00077  -0.00087   2.07947
    D2       -1.06169   0.00007  -0.00012   0.00178   0.00165  -1.06004
    D3       -2.10423  -0.00008   0.00014  -0.00172  -0.00157  -2.10580
    D4        1.03692  -0.00004   0.00012   0.00083   0.00095   1.03787
    D5       -0.01217  -0.00001   0.00002  -0.00102  -0.00100  -0.01318
    D6        3.12897   0.00003   0.00000   0.00152   0.00152   3.13049
    D7       -3.14088  -0.00001   0.00007  -0.00001   0.00004  -3.14084
    D8        0.00016   0.00001   0.00004   0.00074   0.00076   0.00092
    D9        0.00111  -0.00005   0.00009  -0.00230  -0.00221  -0.00109
   D10       -3.14104  -0.00003   0.00005  -0.00154  -0.00149   3.14066
   D11        3.14015   0.00004  -0.00012   0.00152   0.00139   3.14154
   D12       -0.00019   0.00000  -0.00002  -0.00025  -0.00030  -0.00049
   D13       -0.00179   0.00007  -0.00013   0.00349   0.00336   0.00157
   D14        3.14106   0.00003  -0.00004   0.00171   0.00167  -3.14046
   D15       -0.00004   0.00000  -0.00001   0.00029   0.00028   0.00023
   D16        3.14117   0.00002  -0.00004   0.00086   0.00081  -3.14120
   D17       -3.14108  -0.00001   0.00002  -0.00046  -0.00044  -3.14152
   D18        0.00013   0.00000  -0.00001   0.00011   0.00009   0.00023
   D19       -3.14093  -0.00004   0.00005  -0.00235  -0.00230   3.13996
   D20        0.00004   0.00002   0.00003   0.00160   0.00163   0.00167
   D21        0.00001  -0.00002   0.00001  -0.00146  -0.00145  -0.00144
   D22        3.14098   0.00004  -0.00001   0.00248   0.00247  -3.13973
   D23       -0.00103   0.00004  -0.00007   0.00181   0.00173   0.00070
   D24        3.14147   0.00001  -0.00005   0.00009   0.00002   3.14149
   D25        3.14094   0.00003  -0.00004   0.00124   0.00120  -3.14105
   D26        0.00026  -0.00000  -0.00002  -0.00047  -0.00052  -0.00026
   D27        0.00180  -0.00007   0.00013  -0.00337  -0.00324  -0.00144
   D28       -3.14101  -0.00003   0.00003  -0.00164  -0.00162   3.14056
   D29       -3.14057  -0.00004   0.00011  -0.00189  -0.00181   3.14081
   D30       -0.00019  -0.00000   0.00002  -0.00016  -0.00018  -0.00037
   D31       -3.13842  -0.00009  -0.00003  -0.00529  -0.00531   3.13945
   D32        0.00076   0.00007  -0.00015   0.00315   0.00299   0.00375
   D33        0.00417  -0.00012  -0.00002  -0.00717  -0.00718  -0.00301
   D34       -3.13983   0.00003  -0.00013   0.00127   0.00112  -3.13871
   D35       -3.14070  -0.00007   0.00013  -0.00367  -0.00357   3.13892
   D36       -0.00151   0.00008   0.00002   0.00473   0.00478   0.00327
   D37       -1.05489   0.00081   0.00029   0.00755   0.00779  -1.04709
   D38        1.07105  -0.00084  -0.00034  -0.01049  -0.01078   1.06027
   D39       -3.13357  -0.00004  -0.00003  -0.00170  -0.00173  -3.13530
         Item               Value     Threshold  Converged?
 Maximum Force            0.005113     0.000450     NO 
 RMS     Force            0.001119     0.000300     NO 
 Maximum Displacement     0.075030     0.001800     NO 
 RMS     Displacement     0.019002     0.001200     NO 
 Predicted change in Energy=-2.414165D-04
 GradGradGradGradGradGradGradGradGradGradGradGradGradGradGradGradGradGrad

                          Input orientation:                          
 ---------------------------------------------------------------------
 Center     Atomic      Atomic             Coordinates (Angstroms)
 Number     Number       Type             X           Y           Z
 ---------------------------------------------------------------------
      1          6           0        2.229079    0.028972    0.011998
      2          6           0        0.740485   -0.103092    0.013997
      3          6           0       -0.096492   -1.231338    0.000366
      4          6           0       -1.445447   -0.771785    0.009259
      5          6           0       -1.401843    0.604973    0.027517
      6          7           0       -0.069289    0.986520    0.028938
      7          6           0       -2.422226    1.645637    0.043375
      8          8           0       -2.167164    2.838635    0.060949
      9          8           0       -3.672722    1.137343    0.043732
     10          6           0       -4.723404    2.112256    0.062499
     11          6           0        0.326405   -2.625494   -0.019167
     12          8           0       -0.437209   -3.576653   -0.028907
     13          1           0        2.581096    0.572351   -0.873666
     14          1           0        2.583217    0.570787    0.897693
     15          1           0        2.705618   -0.953212    0.010463
     16          1           0       -2.328964   -1.390010    0.002968
     17          1           0        0.217898    1.955883    0.040205
     18          1           0       -4.652989    2.737709    0.956232
     19          1           0       -4.670743    2.752437   -0.822079
     20          1           0       -5.649889    1.537447    0.066769
     21          1           0        1.426811   -2.792385   -0.021760
 ---------------------------------------------------------------------
                    Distance matrix (angstroms):
                    1          2          3          4          5
     1  C    0.000000
     2  C    1.494443   0.000000
     3  C    2.645146   1.404868   0.000000
     4  C    3.760766   2.285929   1.425113   0.000000
     5  C    3.676359   2.256348   2.253157   1.377570   0.000000
     6  N    2.489916   1.357650   2.218209   2.232899   1.386102
     7  C    4.924351   3.614092   3.699713   2.607526   1.457537
     8  O    5.217620   4.136470   4.566841   3.682211   2.361372
     9  O    6.005061   4.584317   4.289750   2.933721   2.332504
    10  C    7.258074   5.896117   5.708922   4.366409   3.647724
    11  C    3.266088   2.556379   1.457016   2.564470   3.664006
    12  O    4.484562   3.668028   2.370116   2.980819   4.291818
    13  H    1.097077   2.152213   3.344653   4.335817   4.083748
    14  H    1.097011   2.151905   3.351670   4.338427   4.079102
    15  H    1.091685   2.141136   2.815897   4.155028   4.393116
    16  H    4.773820   3.328333   2.238106   1.078353   2.200026
    17  H    2.785432   2.124420   3.202937   3.194972   2.109189
    18  H    7.455984   6.168267   6.117898   4.847848   3.997627
    19  H    7.464617   6.175311   6.121328   4.849104   4.002390
    20  H    8.022259   6.597805   6.205707   4.797207   4.349362
    21  H    2.933399   2.775720   2.181240   3.511930   4.421058
                    6          7          8          9         10
     6  N    0.000000
     7  C    2.443554   0.000000
     8  O    2.798648   1.220085   0.000000
     9  O    3.606619   1.349853   2.271871   0.000000
    10  C    4.788443   2.348088   2.657441   1.433436   0.000000
    11  C    3.633943   5.079513   6.006747   5.491441   6.924848
    12  O    4.578347   5.587292   6.645053   5.718005   7.123447
    13  H    2.830331   5.198667   5.343736   6.345950   7.523525
    14  H    2.821942   5.190339   5.330046   6.339323   7.514012
    15  H    3.385707   5.748903   6.174516   6.712284   8.036801
    16  H    3.279437   3.037349   4.232137   2.862667   4.242965
    17  H    1.011072   2.658292   2.543266   3.975795   4.943826
    18  H    4.993680   2.646173   2.644058   2.086803   1.093119
    19  H    5.001608   2.651386   2.656140   2.086673   1.093199
    20  H    5.607856   3.229561   3.717862   2.017375   1.090320
    21  H    4.064605   5.874978   6.680710   6.438346   7.866876
                   11         12         13         14         15
    11  C    0.000000
    12  O    1.219797   0.000000
    13  H    4.004999   5.199810   0.000000
    14  H    4.018712   5.213715   1.771361   0.000000
    15  H    2.908275   4.094064   1.767635   1.767691   0.000000
    16  H    2.928805   2.891567   5.359855   5.364213   5.053501
    17  H    4.583047   5.571615   2.886871   2.872022   3.827854
    18  H    7.383070   7.656008   7.769767   7.553916   8.286523
    19  H    7.385006   7.655672   7.572623   7.767700   8.296727
    20  H    7.283788   7.303096   8.340561   8.331201   8.719005
    21  H    1.112992   2.022300   3.657809   3.673364   2.240301
                   16         17         18         19         20
    16  H    0.000000
    17  H    4.205103   0.000000
    18  H    4.831963   5.017558   0.000000
    19  H    4.829545   5.027609   1.778461   0.000000
    20  H    4.427484   5.882748   1.795991   1.795823   0.000000
    21  H    4.009129   4.900139   8.276616   8.280443   8.296684
                   21
    21  H    0.000000
 Stoichiometry    C8H9NO3
 Framework group  C1[X(C8H9NO3)]
 Deg. of freedom    57
 Full point group                 C1      NOp   1
 Largest Abelian subgroup         C1      NOp   1
 Largest concise Abelian subgroup C1      NOp   1
                         Standard orientation:                         
 ---------------------------------------------------------------------
 Center     Atomic      Atomic             Coordinates (Angstroms)
 Number     Number       Type             X           Y           Z
 ---------------------------------------------------------------------
      1          6           0        2.618292    2.104242    0.001845
      2          6           0        1.578187    1.031145    0.000902
      3          6           0        1.682510   -0.369844   -0.000390
      4          6           0        0.361267   -0.903944   -0.001853
      5          6           0       -0.505894    0.166444   -0.001735
      6          7           0        0.253017    1.326329   -0.001176
      7          6           0       -1.958444    0.286910   -0.002912
      8          8           0       -2.545468    1.356491   -0.000372
      9          8           0       -2.572431   -0.915219    0.000249
     10          6           0       -4.004959   -0.864289    0.002758
     11          6           0        2.914056   -1.148426   -0.000080
     12          8           0        2.958091   -2.367428    0.000399
     13          1           0        2.539267    2.738460   -0.889839
     14          1           0        2.522294    2.752804    0.881382
     15          1           0        3.620933    1.672596    0.014852
     16          1           0        0.096903   -1.949389   -0.002723
     17          1           0       -0.163444    2.247647   -0.001873
     18          1           0       -4.370410   -0.337865    0.888327
     19          1           0       -4.373795   -0.352525   -0.890070
     20          1           0       -4.330334   -1.904890    0.011737
     21          1           0        3.855847   -0.555323    0.003013
 ---------------------------------------------------------------------
 Rotational constants (GHZ):           1.7216497           0.5350891           0.4103205
 Standard basis: 6-31G(d) (6D, 7F)
 There are   198 symmetry adapted cartesian basis functions of A   symmetry.
 There are   198 symmetry adapted basis functions of A   symmetry.
   198 basis functions,   372 primitive gaussians,   198 cartesian basis functions
    44 alpha electrons       44 beta electrons
       nuclear repulsion energy       670.2674574511 Hartrees.
 NAtoms=   21 NActive=   21 NUniq=   21 SFac= 1.00D+00 NAtFMM=   60 NAOKFM=F Big=F
 Integral buffers will be    131072 words long.
 Raffenetti 2 integral format.
 Two-electron integral symmetry is turned on.
 Nuclear repulsion after empirical dispersion term =      670.2325705679 Hartrees.
 One-electron integrals computed using PRISM.
 NBasis=   198 RedAO= T EigKep=  6.06D-04  NBF=   198
 NBsUse=   198 1.00D-06 EigRej= -1.00D+00 NBFU=   198
 Initial guess from the checkpoint file:  "JID_2656.chk"
 B after Tr=    -0.000000   -0.000000   -0.000000
         Rot=    0.999998   -0.000007   -0.000001   -0.002115 Ang=  -0.24 deg.
 ExpMin= 1.61D-01 ExpMax= 5.48D+03 ExpMxC= 8.25D+02 IAcc=2 IRadAn=         4 AccDes= 0.00D+00
 Harris functional with IExCor=  402 and IRadAn=       4 diagonalized for initial guess.
 HarFok:  IExCor=  402 AccDes= 0.00D+00 IRadAn=         4 IDoV= 1 UseB2=F ITyADJ=14
 ICtDFT=  3500011 ScaDFX=  1.000000  1.000000  1.000000  1.000000
 FoFCou: FMM=F IPFlag=           0 FMFlag=      100000 FMFlg1=           0
         NFxFlg=           0 DoJE=T BraDBF=F KetDBF=T FulRan=T
         wScrn=  0.000000 ICntrl=       500 IOpCl=  0 I1Cent=   200000004 NGrid=           0
         NMat0=    1 NMatS0=      1 NMatT0=    0 NMatD0=    1 NMtDS0=    0 NMtDT0=    0
 Petite list used in FoFCou.
 Keep R1 ints in memory in canonical form, NReq=198176716.
 Requested convergence on RMS density matrix=1.00D-08 within  32 cycles.
 Requested convergence on MAX density matrix=1.00D-06.
 Requested convergence on             energy=1.00D-06.
 No special actions if energy rises.
 Integral accuracy reduced to 1.0D-05 until final iterations.
 Initial convergence to 1.0D-05 achieved.  Increase integral accuracy.
 SCF Done:  E(RB3LYP) =  -590.736921474     A.U. after   11 cycles
            NFock= 11  Conv=0.52D-08     -V/T= 2.0092
 QCSCF skips out because SCF is already converged.
 Calling FoFJK, ICntrl=      2127 FMM=F ISym2X=0 I1Cent= 0 IOpClX= 0 NMat=1 NMatS=1 NMatT=0.
 ***** Axes restored to original set *****
 -------------------------------------------------------------------
 Center     Atomic                   Forces (Hartrees/Bohr)
 Number     Number              X              Y              Z
 -------------------------------------------------------------------
      1        6          -0.000081251   -0.000631908   -0.000012191
      2        6          -0.000537038    0.001166523   -0.000166019
      3        6           0.000753536   -0.000993729   -0.000047093
      4        6           0.001630028    0.001036681    0.000010047
      5        6          -0.002360180   -0.000457872   -0.000329899
      6        7           0.001464576   -0.000949748    0.000099754
      7        6          -0.001596841   -0.001100460    0.000759508
      8        8           0.000792578    0.001149646   -0.000299648
      9        8           0.002423672   -0.000190955   -0.000238154
     10        6          -0.001073923    0.000348035   -0.000009534
[...]
    98    C    5  py     Val( 2p)     0.45921       0.11927
    99    C    5  py     Ryd( 4p)     0.00448       1.26421
   100    C    5  py     Ryd( 3p)     0.00014       0.79177
   101    C    5  py     Ryd( 5p)     0.00013       3.01170
   102    C    5  pz     Val( 2p)     0.55945       0.04688
   103    C    5  pz     Ryd( 4p)     0.00123       0.73892
   104    C    5  pz     Ryd( 3p)     0.00020       0.55604
   105    C    5  pz     Ryd( 5p)     0.00002       2.79998
   106    C    5  dxy    Ryd( 3d)     0.00052       2.89019
   107    C    5  dxz    Ryd( 3d)     0.00030       1.84174
   108    C    5  dyz    Ryd( 3d)     0.00042       1.78018
   109    C    5  dx2y2  Ryd( 3d)     0.00052       2.67782
   110    C    5  dz2    Ryd( 3d)     0.00027       2.24077
 
   111    N    6  S      Cor( 1S)     0.99963     -14.03663
   112    N    6  S      Val( 2S)     0.61328      -0.38521
   113    N    6  S      Ryd( 4S)     0.00031       1.53876
   114    N    6  S      Ryd( 3S)     0.00005       1.11076
   115    N    6  S      Ryd( 5S)     0.00000      35.44486
   116    N    6  px     Val( 2p)     0.65801      -0.10961
   117    N    6  px     Ryd( 4p)     0.00152       1.09425
   118    N    6  px     Ryd( 3p)     0.00021       1.05530
   119    N    6  px     Ryd( 5p)     0.00002       4.58642
   120    N    6  py     Val( 2p)     0.68988      -0.11692
   121    N    6  py     Ryd( 4p)     0.00133       1.27147
   122    N    6  py     Ryd( 3p)     0.00043       1.01362
   123    N    6  py     Ryd( 5p)     0.00002       4.54135
   124    N    6  pz     Val( 2p)     0.79841      -0.12237
   125    N    6  pz     Ryd( 3p)     0.00254       0.54410
   126    N    6  pz     Ryd( 4p)     0.00045       0.81217
   127    N    6  pz     Ryd( 5p)     0.00000       3.95964
   128    N    6  dxy    Ryd( 3d)     0.00043       3.12095
   129    N    6  dxz    Ryd( 3d)     0.00036       2.34485
   130    N    6  dyz    Ryd( 3d)     0.00019       2.34424
   131    N    6  dx2y2  Ryd( 3d)     0.00043       3.08301
   132    N    6  dz2    Ryd( 3d)     0.00028       2.79148
 
   133    C    7  S      Cor( 1S)     0.99962      -9.99841
   134    C    7  S      Val( 2S)     0.36613       0.05915
   135    C    7  S      Ryd( 4S)     0.00171       1.30074
   136    C    7  S      Ryd( 3S)     0.00014       0.76985
   137    C    7  S      Ryd( 5S)     0.00002      22.53246
   138    C    7  px     Val( 2p)     0.45976       0.11450
   139    C    7  px     Ryd( 4p)     0.00319       1.55628
   140    C    7  px     Ryd( 3p)     0.00018       1.11903
   141    C    7  px     Ryd( 5p)     0.00015       1.90385
   142    C    7  py     Val( 2p)     0.35638       0.15889
   143    C    7  py     Ryd( 3p)     0.00920       1.30459
   144    C    7  py     Ryd( 4p)     0.00016       1.40176
   145    C    7  py     Ryd( 5p)     0.00008       1.88179
   146    C    7  pz     Val( 2p)     0.37338       0.05591
   147    C    7  pz     Ryd( 3p)     0.00047       0.89217
   148    C    7  pz     Ryd( 4p)     0.00026       1.16112
   149    C    7  pz     Ryd( 5p)     0.00007       1.93576
   150    C    7  dxy    Ryd( 3d)     0.00163       2.71476
   151    C    7  dxz    Ryd( 3d)     0.00090       1.74048
   152    C    7  dyz    Ryd( 3d)     0.00212       1.79091
   153    C    7  dx2y2  Ryd( 3d)     0.00192       2.81202
   154    C    7  dz2    Ryd( 3d)     0.00041       2.23204
 
   155    O    8  S      Cor( 1S)     0.99988     -18.67427
   156    O    8  S      Val( 2S)     0.84887      -0.71817
   157    O    8  S      Ryd( 3S)     0.00091       1.39104
   158    O    8  S      Ryd( 4S)     0.00004       1.55559
   159    O    8  S      Ryd( 5S)     0.00000      49.86307
   160    O    8  px     Val( 2p)     0.89377      -0.11235
   161    O    8  px     Ryd( 3p)     0.00106       0.86934
   162    O    8  px     Ryd( 4p)     0.00007       1.15094
   163    O    8  px     Ryd( 5p)     0.00002       5.27073
   164    O    8  py     Val( 2p)     0.81665      -0.13259
   165    O    8  py     Ryd( 3p)     0.00077       0.81232
   166    O    8  py     Ryd( 4p)     0.00008       1.04743
   167    O    8  py     Ryd( 5p)     0.00005       5.44229
   168    O    8  pz     Val( 2p)     0.74955      -0.08478
   169    O    8  pz     Ryd( 3p)     0.00062       0.72088
   170    O    8  pz     Ryd( 4p)     0.00009       1.02802
   171    O    8  pz     Ryd( 5p)     0.00001       5.12863
   172    O    8  dxy    Ryd( 3d)     0.00072       3.66416
   173    O    8  dxz    Ryd( 3d)     0.00018       3.07343
   174    O    8  dyz    Ryd( 3d)     0.00063       3.21718
   175    O    8  dx2y2  Ryd( 3d)     0.00075       3.49716
   176    O    8  dz2    Ryd( 3d)     0.00023       3.27815
 
   177    O    9  S      Cor( 1S)     0.99986     -18.81717
   178    O    9  S      Val( 2S)     0.80864      -0.73885
   179    O    9  S      Ryd( 3S)     0.00109       1.15344
   180    O    9  S      Ryd( 4S)     0.00007       1.29676
   181    O    9  S      Ryd( 5S)     0.00000      49.79064
   182    O    9  px     Val( 2p)     0.71355      -0.17330
   183    O    9  px     Ryd( 3p)     0.00076       1.09252
   184    O    9  px     Ryd( 4p)     0.00020       1.21080
   185    O    9  px     Ryd( 5p)     0.00001       5.35169
   186    O    9  py     Val( 2p)     0.83616      -0.19789
   187    O    9  py     Ryd( 3p)     0.00174       0.66989
   188    O    9  py     Ryd( 4p)     0.00043       1.03131
   189    O    9  py     Ryd( 5p)     0.00008       5.24788
   190    O    9  pz     Val( 2p)     0.90772      -0.17744
   191    O    9  pz     Ryd( 3p)     0.00166       0.59964
   192    O    9  pz     Ryd( 4p)     0.00040       0.96935
   193    O    9  pz     Ryd( 5p)     0.00000       5.05971
   194    O    9  dxy    Ryd( 3d)     0.00048       3.47830
   195    O    9  dxz    Ryd( 3d)     0.00010       3.08857
   196    O    9  dyz    Ryd( 3d)     0.00042       3.07700
   197    O    9  dx2y2  Ryd( 3d)     0.00061       3.60873
   198    O    9  dz2    Ryd( 3d)     0.00033       3.40177
 
   199    C   10  S      Cor( 1S)     0.99961      -9.98286
   200    C   10  S      Val( 2S)     0.54057      -0.15269
   201    C   10  S      Ryd( 3S)     0.00127       0.99505
   202    C   10  S      Ryd( 4S)     0.00008       1.12678
   203    C   10  S      Ryd( 5S)     0.00000      23.18680
   204    C   10  px     Val( 2p)     0.37272       0.03562
   205    C   10  px     Ryd( 3p)     0.00150       0.66557
   206    C   10  px     Ryd( 4p)     0.00010       0.69538
   207    C   10  px     Ryd( 5p)     0.00006       2.82261
   208    C   10  py     Val( 2p)     0.58847       0.01437
   209    C   10  py     Ryd( 4p)     0.00157       0.80908
   210    C   10  py     Ryd( 3p)     0.00021       0.69389
   211    C   10  py     Ryd( 5p)     0.00002       2.80285
   212    C   10  pz     Val( 2p)     0.59470       0.00887
   213    C   10  pz     Ryd( 4p)     0.00020       0.69114
   214    C   10  pz     Ryd( 3p)     0.00032       0.67864
   215    C   10  pz     Ryd( 5p)     0.00003       2.82371
   216    C   10  dxy    Ryd( 3d)     0.00074       2.05804
   217    C   10  dxz    Ryd( 3d)     0.00089       1.97146
   218    C   10  dyz    Ryd( 3d)     0.00031       2.16801
   219    C   10  dx2y2  Ryd( 3d)     0.00094       2.33095
   220    C   10  dz2    Ryd( 3d)     0.00050       2.23677
 
   221    C   11  S      Cor( 1S)     0.99966      -9.93153
   222    C   11  S      Val( 2S)     0.43303       0.02324
   223    C   11  S      Ryd( 3S)     0.00499       1.03777
   224    C   11  S      Ryd( 4S)     0.00010       1.38513
   225    C   11  S      Ryd( 5S)     0.00001      22.26392
   226    C   11  px     Val( 2p)     0.52450       0.13002
   227    C   11  px     Ryd( 3p)     0.00137       1.00006
   228    C   11  px     Ryd( 4p)     0.00061       1.40372
   229    C   11  px     Ryd( 5p)     0.00005       2.12134
   230    C   11  py     Val( 2p)     0.41696       0.15703
   231    C   11  py     Ryd( 3p)     0.00736       1.08136
   232    C   11  py     Ryd( 4p)     0.00133       1.34878
   233    C   11  py     Ryd( 5p)     0.00010       2.20926
   234    C   11  pz     Val( 2p)     0.36176       0.07724
   235    C   11  pz     Ryd( 3p)     0.00042       0.55687
   236    C   11  pz     Ryd( 4p)     0.00013       1.06225
   237    C   11  pz     Ryd( 5p)     0.00005       2.23573
   238    C   11  dxy    Ryd( 3d)     0.00177       2.66118
   239    C   11  dxz    Ryd( 3d)     0.00011       1.74690
   240    C   11  dyz    Ryd( 3d)     0.00144       1.82592
   241    C   11  dx2y2  Ryd( 3d)     0.00069       2.71599
   242    C   11  dz2    Ryd( 3d)     0.00034       2.21292
 
   243    O   12  S      Cor( 1S)     0.99988     -18.66203
   244    O   12  S      Val( 2S)     0.84595      -0.68895
   245    O   12  S      Ryd( 3S)     0.00209       0.96267
   246    O   12  S      Ryd( 4S)     0.00009       1.69849
   247    O   12  S      Ryd( 5S)     0.00000      49.83791
   248    O   12  px     Val( 2p)     0.93606      -0.07885
   249    O   12  px     Ryd( 3p)     0.00275       0.71301
   250    O   12  px     Ryd( 4p)     0.00002       1.73407
   251    O   12  px     Ryd( 5p)     0.00001       4.72449
   252    O   12  py     Val( 2p)     0.79199      -0.11908
   253    O   12  py     Ryd( 3p)     0.00056       0.80583
   254    O   12  py     Ryd( 4p)     0.00011       1.40966
   255    O   12  py     Ryd( 5p)     0.00005       5.17388
   256    O   12  pz     Val( 2p)     0.68209      -0.05291
   257    O   12  pz     Ryd( 3p)     0.00037       0.59464
   258    O   12  pz     Ryd( 4p)     0.00001       1.56476
   259    O   12  pz     Ryd( 5p)     0.00001       4.72497
   260    O   12  dxy    Ryd( 3d)     0.00060       3.40567
   261    O   12  dxz    Ryd( 3d)     0.00000       3.03902
   262    O   12  dyz    Ryd( 3d)     0.00075       3.29186
   263    O   12  dx2y2  Ryd( 3d)     0.00068       3.73574
   264    O   12  dz2    Ryd( 3d)     0.00020       3.27480
 
   265    H   13  S      Val( 1S)     0.40244       0.12795
   266    H   13  S      Ryd( 2S)     0.00095       0.55936
   267    H   13  S      Ryd( 3S)     0.00008       0.88654
   268    H   13  S      Ryd( 4S)     0.00006       1.86834
   269    H   13  px     Ryd( 2p)     0.00009       1.83765
   270    H   13  py     Ryd( 2p)     0.00010       2.18980
   271    H   13  pz     Ryd( 2p)     0.00013       2.47228
 
   272    H   14  S      Val( 1S)     0.40250       0.12774
   273    H   14  S      Ryd( 2S)     0.00095       0.55679
   274    H   14  S      Ryd( 3S)     0.00008       0.97289
   275    H   14  S      Ryd( 4S)     0.00006       1.78342
   276    H   14  px     Ryd( 2p)     0.00009       1.83774
   277    H   14  py     Ryd( 2p)     0.00010       2.20555
   278    H   14  pz     Ryd( 2p)     0.00013       2.45626
 
   279    H   15  S      Val( 1S)     0.38942       0.14828
   280    H   15  S      Ryd( 3S)     0.00083       0.95344
   281    H   15  S      Ryd( 2S)     0.00012       0.56649
   282    H   15  S      Ryd( 4S)     0.00007       1.79678
   283    H   15  px     Ryd( 2p)     0.00014       2.66052
   284    H   15  py     Ryd( 2p)     0.00009       2.00979
   285    H   15  pz     Ryd( 2p)     0.00007       1.84367
 
   286    H   16  S      Val( 1S)     0.39380       0.22960
   287    H   16  S      Ryd( 3S)     0.00055       1.13655
   288    H   16  S      Ryd( 4S)     0.00012       1.88177
   289    H   16  S      Ryd( 2S)     0.00005       0.46439
   290    H   16  px     Ryd( 2p)     0.00006       2.26986
   291    H   16  py     Ryd( 2p)     0.00022       2.92716
   292    H   16  pz     Ryd( 2p)     0.00008       1.78779
 
   293    H   17  S      Val( 1S)     0.29676       0.20480
   294    H   17  S      Ryd( 3S)     0.00104       0.64593
   295    H   17  S      Ryd( 4S)     0.00026       2.34527
   296    H   17  S      Ryd( 2S)     0.00012       0.40930
   297    H   17  px     Ryd( 2p)     0.00016       2.25462
   298    H   17  py     Ryd( 2p)     0.00018       2.74112
   299    H   17  pz     Ryd( 2p)     0.00032       1.70888
 
   300    H   18  S      Val( 1S)     0.41306       0.12682
   301    H   18  S      Ryd( 2S)     0.00081       0.55150
   302    H   18  S      Ryd( 4S)     0.00010       2.14895
   303    H   18  S      Ryd( 3S)     0.00004       0.59542
   304    H   18  px     Ryd( 2p)     0.00004       1.92257
   305    H   18  py     Ryd( 2p)     0.00016       2.08751
   306    H   18  pz     Ryd( 2p)     0.00018       2.49847
 
   307    H   19  S      Val( 1S)     0.41310       0.12667
   308    H   19  S      Ryd( 2S)     0.00080       0.54884
   309    H   19  S      Ryd( 4S)     0.00010       2.02673
   310    H   19  S      Ryd( 3S)     0.00004       0.71952
   311    H   19  px     Ryd( 2p)     0.00004       1.92292
   312    H   19  py     Ryd( 2p)     0.00016       2.08446
   313    H   19  pz     Ryd( 2p)     0.00018       2.50215
 
   314    H   20  S      Val( 1S)     0.41694       0.11891
   315    H   20  S      Ryd( 2S)     0.00039       0.53174
   316    H   20  S      Ryd( 3S)     0.00008       1.18149
   317    H   20  S      Ryd( 4S)     0.00004       1.49616
   318    H   20  px     Ryd( 2p)     0.00005       1.89056
   319    H   20  py     Ryd( 2p)     0.00023       2.69594
   320    H   20  pz     Ryd( 2p)     0.00009       1.83084
 
   321    H   21  S      Val( 1S)     0.47129       0.12747
   322    H   21  S      Ryd( 3S)     0.00221       0.68573
   323    H   21  S      Ryd( 4S)     0.00008       2.11891
   324    H   21  S      Ryd( 2S)     0.00006       0.36748
   325    H   21  px     Ryd( 2p)     0.00032       2.61656
   326    H   21  py     Ryd( 2p)     0.00007       2.28764
   327    H   21  pz     Ryd( 2p)     0.00004       1.74006

 WARNING:  Population inversion found on atom  C    1
           Population inversion found on atom  C    2
           Population inversion found on atom  C    3
           Population inversion found on atom  C    4
           Population inversion found on atom  C    5
           Population inversion found on atom  N    6
           Population inversion found on atom  C    7
           Population inversion found on atom  C   10
           Population inversion found on atom  O   12
           Population inversion found on atom  H   15
           Population inversion found on atom  H   16
           Population inversion found on atom  H   17
           Population inversion found on atom  H   18
           Population inversion found on atom  H   19
           Population inversion found on atom  H   21


 Summary of Natural Population Analysis:                  
                                                          
                                       Natural Population 
                Natural  -----------------------------------------------
    Atom  No    Charge         Core      Valence    Rydberg      Total
 -----------------------------------------------------------------------
      C    1   -0.29996      0.99964     2.29587    0.00445     3.29996
      C    2    0.07447      0.99954     1.91479    0.01121     2.92553
      C    3   -0.10677      0.99947     2.09825    0.00905     3.10677
      C    4   -0.01007      0.99950     2.00170    0.00886     3.01007
      C    5    0.01602      0.99949     1.97195    0.01254     2.98398
      N    6   -0.26776      0.99963     2.75958    0.00856     3.76776
      C    7    0.42211      0.99962     1.55565    0.02263     2.57789
      O    8   -0.31492      0.99988     3.30884    0.00620     4.31492
      O    9   -0.27430      0.99986     3.26607    0.00837     4.27430
      C   10   -0.10482      0.99961     2.09646    0.00875     3.10482
      C   11    0.24322      0.99966     1.73625    0.02087     2.75678
      O   12   -0.26428      0.99988     3.25609    0.00830     4.26428
      H   13    0.09615      0.00000     0.40244    0.00141     0.40385
      H   14    0.09608      0.00000     0.40250    0.00141     0.40392
      H   15    0.10927      0.00000     0.38942    0.00131     0.39073
      H   16    0.10511      0.00000     0.39380    0.00109     0.39489
      H   17    0.20117      0.00000     0.29676    0.00207     0.29883
      H   18    0.08562      0.00000     0.41306    0.00132     0.41438
      H   19    0.08557      0.00000     0.41310    0.00132     0.41443
      H   20    0.08218      0.00000     0.41694    0.00088     0.41782
      H   21    0.02593      0.00000     0.47129    0.00278     0.47407
 =======================================================================
   * Total *    0.00000     11.99579    31.86081    0.14340    44.00000

                                 Natural Population      
 --------------------------------------------------------
   Core                      11.99579 ( 99.9649% of  12)
   Valence                   31.86081 ( 99.5650% of  32)
   Natural Minimal Basis     43.85660 ( 99.6741% of  44)
   Natural Rydberg Basis      0.14340 (  0.3259% of  44)
 --------------------------------------------------------

    Atom  No          Natural Electron Configuration
 ----------------------------------------------------------------------------
      C    1      [core]2S( 0.54)2p( 1.76)
      C    2      [core]2S( 0.42)2p( 1.49)4p( 0.01)
      C    3      [core]2S( 0.46)2p( 1.64)4p( 0.01)
      C    4      [core]2S( 0.46)2p( 1.54)4p( 0.01)
      C    5      [core]2S( 0.43)2p( 1.54)4p( 0.01)
      N    6      [core]2S( 0.61)2p( 2.15)
      C    7      [core]2S( 0.37)2p( 1.19)3p( 0.01)3d( 0.01)
      O    8      [core]2S( 0.85)2p( 2.46)
      O    9      [core]2S( 0.81)2p( 2.46)
      C   10      [core]2S( 0.54)2p( 1.56)
      C   11      [core]2S( 0.43)2p( 1.30)3p( 0.01)
      O   12      [core]2S( 0.85)2p( 2.41)
      H   13            1S( 0.40)
      H   14            1S( 0.40)
      H   15            1S( 0.39)
      H   16            1S( 0.39)
      H   17            1S( 0.30)
      H   18            1S( 0.41)
      H   19            1S( 0.41)
      H   20            1S( 0.42)
      H   21            1S( 0.47)


 NBO analysis skipped by request.
 1\1\GINC-NODE201\SP\UB3LYP\6-311++G(d,p)\C8H9N1O3(1-,2)\VSC10255\09-De
 c-2020\0\\# B3LYP/6-311++G(d,p) empiricaldispersion=gd3bj scf=xqc pop=
 npa geom=check\\CID_82652596_JID_2656_Energie_anion\\-1,2\C,0,2.225535
 2506,0.0321292099,0.0096346624\C,0,0.7376471397,-0.1018870995,0.013989
 4312\C,0,-0.0918531777,-1.2359705537,0.0016789125\C,0,-1.4431930046,-0
 .7835230846,0.0119366552\C,0,-1.410153631,0.5932037143,0.0298681883\N,
 0,-0.0777090107,0.9817563851,0.0311595335\C,0,-2.4256473305,1.63869279
 97,0.0469181957\O,0,-2.1585575586,2.8303907379,0.0618960794\O,0,-3.677
 1798238,1.1406265758,0.0440917726\C,0,-4.7226381201,2.1245428815,0.060
 6139743\C,0,0.3359497702,-2.6279229573,-0.0179277158\O,0,-0.4249228501
 ,-3.5816793839,-0.0285526643\H,0,2.5746842123,0.5770783838,-0.87603800
 14\H,0,2.5798586989,0.5744939073,0.8947543076\H,0,2.7033918717,-0.9492
 820179,0.0067225473\H,0,-2.3217268612,-1.4105416288,0.0066071514\H,0,0
 .1958240514,1.9557337779,0.0434012323\H,0,-4.6503009704,2.7457597516,0
 .9571355164\H,0,-4.6595037688,2.7657249088,-0.8224882838\H,0,-5.653805
 0116,1.5581992976,0.0589657925\H,0,1.4365301242,-2.7905456053,-0.02298
 72875\\Version=ES64L-G16RevA.03\State=2-A\HF=-590.9070534\S2=0.76307\S
 2-1=0.\S2A=0.750092\RMSD=9.516e-11\Dipole=0.362923,2.2602385,0.0289883
 \Quadrupole=12.7123805,-23.1707954,10.4584149,7.6601359,0.0737128,-0.4
 501579\PG=C01 [X(C8H9N1O3)]\\@


 FORGIVE MY NONSENSE AS I ALSO FORGIVE THOSE WHO THINK THEY TALK SENSE

                                                       -- ROBERT FROST
 Job cpu time:       0 days  0 hours 35 minutes 40.0 seconds.
 Elapsed time:       0 days  0 hours 11 minutes  4.2 seconds.
 File lengths (MBytes):  RWF=    156 Int=      0 D2E=      0 Chk=     16 Scr=      8
 Normal termination of Gaussian 16 at Wed Dec  9 18:12:44 2020.
