 Entering Gaussian System, Link 0=g16
 Initial command:
 /apps/brussel/CO7/skylake/software/Gaussian/G16.A.03-intel-2017b/g16/l1.exe "/scratch/brussel/102/vsc10255/3544754[2917].master01.hydra.brussel.vsc/Gau-181285.inp" -scrdir="/scratch/brussel/102/vsc10255/3544754[2917].master01.hydra.brussel.vsc/"
 Entering Link 1 = /apps/brussel/CO7/skylake/software/Gaussian/G16.A.03-intel-2017b/g16/l1.exe.bin PID=    181333.
  
 Copyright (c) 1988,1990,1992,1993,1995,1998,2003,2009,2016,
            Gaussian, Inc.  All Rights Reserved.
  
 This is part of the Gaussian(R) 16 program.  It is based on
 the Gaussian(R) 09 system (copyright 2009, Gaussian, Inc.),
 the Gaussian(R) 03 system (copyright 2003, Gaussian, Inc.),
 the Gaussian(R) 98 system (copyright 1998, Gaussian, Inc.),
 the Gaussian(R) 94 system (copyright 1995, Gaussian, Inc.),
 the Gaussian 92(TM) system (copyright 1992, Gaussian, Inc.),
 the Gaussian 90(TM) system (copyright 1990, Gaussian, Inc.),
 the Gaussian 88(TM) system (copyright 1988, Gaussian, Inc.),
 the Gaussian 86(TM) system (copyright 1986, Carnegie Mellon
 University), and the Gaussian 82(TM) system (copyright 1983,
 Carnegie Mellon University). Gaussian is a federally registered
 trademark of Gaussian, Inc.
  
 This software contains proprietary and confidential information,
 including trade secrets, belonging to Gaussian, Inc.
  
 This software is provided under written license and may be
 used, copied, transmitted, or stored only in accord with that
 written license.
  
 The following legend is applicable only to US Government
 contracts under FAR:
  
                    RESTRICTED RIGHTS LEGEND
  
 Use, reproduction and disclosure by the US Government is
 subject to restrictions as set forth in subparagraphs (a)
 and (c) of the Commercial Computer Software - Restricted
 Rights clause in FAR 52.227-19.
  
 Gaussian, Inc.
 340 Quinnipiac St., Bldg. 40, Wallingford CT 06492
  
  
 ---------------------------------------------------------------
 Warning -- This program may not be used in any manner that
 competes with the business of Gaussian, Inc. or will provide
 assistance to any competitor of Gaussian, Inc.  The licensee
 of this program is prohibited from giving any competitor of
 Gaussian, Inc. access to this program.  By using this program,
 the user acknowledges that Gaussian, Inc. is engaged in the
 business of creating and licensing software in the field of
 computational chemistry and represents and warrants to the
 licensee that it is not a competitor of Gaussian, Inc. and that
 it will not use this program in any manner prohibited above.
 ---------------------------------------------------------------
  

 Cite this work as:
 Gaussian 16, Revision A.03,
 M. J. Frisch, G. W. Trucks, H. B. Schlegel, G. E. Scuseria, 
 M. A. Robb, J. R. Cheeseman, G. Scalmani, V. Barone, 
 G. A. Petersson, H. Nakatsuji, X. Li, M. Caricato, A. V. Marenich, 
 J. Bloino, B. G. Janesko, R. Gomperts, B. Mennucci, H. P. Hratchian, 
 J. V. Ortiz, A. F. Izmaylov, J. L. Sonnenberg, D. Williams-Young, 
 F. Ding, F. Lipparini, F. Egidi, J. Goings, B. Peng, A. Petrone, 
 T. Henderson, D. Ranasinghe, V. G. Zakrzewski, J. Gao, N. Rega, 
 G. Zheng, W. Liang, M. Hada, M. Ehara, K. Toyota, R. Fukuda, 
 J. Hasegawa, M. Ishida, T. Nakajima, Y. Honda, O. Kitao, H. Nakai, 
 T. Vreven, K. Throssell, J. A. Montgomery, Jr., J. E. Peralta, 
 F. Ogliaro, M. J. Bearpark, J. J. Heyd, E. N. Brothers, K. N. Kudin, 
 V. N. Staroverov, T. A. Keith, R. Kobayashi, J. Normand, 
 K. Raghavachari, A. P. Rendell, J. C. Burant, S. S. Iyengar, 
 J. Tomasi, M. Cossi, J. M. Millam, M. Klene, C. Adamo, R. Cammi, 
 J. W. Ochterski, R. L. Martin, K. Morokuma, O. Farkas, 
 J. B. Foresman, and D. J. Fox, Gaussian, Inc., Wallingford CT, 2016.
 
 ******************************************
 Gaussian 16:  ES64L-G16RevA.03 25-Dec-2016
                 9-Dec-2020 
 ******************************************
 %chk=JID_2917.chk
 %mem=8GB
 %nprocshared=4
 Will use up to    4 processors via shared memory.
 -----------------------------------------------------------
 # opt freq B3LYP/6-31G(d) empiricaldispersion=gd3bj scf=xqc
 -----------------------------------------------------------
 1/18=20,19=15,26=3,38=1/1,3;
 2/9=110,12=2,17=6,18=5,40=1/2;
 3/5=1,6=6,7=1,11=2,25=1,30=1,71=1,74=-5,124=41/1,2,3;
 4//1;
 5/5=2,8=3,13=1,38=5/2,8;
 6/7=2,8=2,9=2,10=2,28=1/1;
 7//1,2,3,16;
 1/18=20,19=15,26=3/3(2);
 2/9=110/2;
 99//99;
 2/9=110/2;
 3/5=1,6=6,7=1,11=2,25=1,30=1,71=1,74=-5,124=41/1,2,3;
 4/5=5,16=3,69=1/1;
 5/5=2,8=3,13=1,38=5/2,8;
 7//1,2,3,16;
 1/18=20,19=15,26=3/3(-5);
 2/9=110/2;
 6/7=2,8=2,9=2,10=2,19=2,28=1/1;
 99/9=1/99;
 -------------------------------
 CID_153109467_JID_2917_neutraal
 -------------------------------
 Symbolic Z-matrix:
 Charge =  0 Multiplicity = 1
 C                     0.91963  -0.05826  -0.0121 
 C                     0.75418   0.42989   1.41551 
 C                     1.44987   1.74895   1.81852 
 C                     2.91933   1.87316   1.38179 
 C                     3.12568   2.40441  -0.03662 
 C                     2.35808   3.6907   -0.26079 
 C                     3.09353   4.98986   0.02474 
 C                     2.86259   4.56656  -1.39423 
 C                     0.85647   3.56295   0.09972 
 C                     0.63064   3.01226   1.495 
 C                    -0.1663    4.59812  -0.34976 
 C                    -0.17336   3.2366   -0.96821 
 H                     0.60162   0.68482  -0.74343 
 H                     0.30895  -0.95418  -0.16833 
 H                     1.95619  -0.34044  -0.21744 
 H                    -0.31699   0.50445   1.64056 
 H                     1.13773  -0.36355   2.07117 
 H                     1.46788   1.70217   2.91845 
 H                     3.41505   2.56769   2.07391 
 H                     3.43266   0.91126   1.49666 
 H                     2.8099    1.6718   -0.78427 
 H                     4.20073   2.55442  -0.19912 
 H                     2.52108   5.82927   0.40323 
 H                     4.10396   4.94153   0.41412 
 H                     3.71923   4.23038  -1.96865 
 H                     2.15141   5.12878  -1.98612 
 H                    -0.43439   2.82842   1.68471 
 H                     0.92751   3.79957   2.20177 
 H                     0.15418   5.43299  -0.96003 
 H                    -0.97814   4.85304   0.32319 
 H                     0.16835   3.14165  -1.99278 
 H                    -0.99415   2.57388  -0.71893 
 

 GradGradGradGradGradGradGradGradGradGradGradGradGradGradGradGradGradGrad
 Berny optimization.
 Initialization pass.
                           ----------------------------
                           !    Initial Parameters    !
                           ! (Angstroms and Degrees)  !
 --------------------------                            --------------------------
 ! Name  Definition              Value          Derivative Info.                !
 --------------------------------------------------------------------------------
 ! R1    R(1,2)                  1.5178         estimate D2E/DX2                !
 ! R2    R(1,13)                 1.09           estimate D2E/DX2                !
 ! R3    R(1,14)                 1.0954         estimate D2E/DX2                !
 ! R4    R(1,15)                 1.0937         estimate D2E/DX2                !
 ! R5    R(2,3)                  1.5448         estimate D2E/DX2                !
 ! R6    R(2,16)                 1.0971         estimate D2E/DX2                !
 ! R7    R(2,17)                 1.0984         estimate D2E/DX2                !
 ! R8    R(3,4)                  1.538          estimate D2E/DX2                !
 ! R9    R(3,10)                 1.5401         estimate D2E/DX2                !
 ! R10   R(3,18)                 1.1011         estimate D2E/DX2                !
 ! R11   R(4,5)                  1.5286         estimate D2E/DX2                !
 ! R12   R(4,19)                 1.0987         estimate D2E/DX2                !
 ! R13   R(4,20)                 1.0963         estimate D2E/DX2                !
 ! R14   R(5,6)                  1.5146         estimate D2E/DX2                !
 ! R15   R(5,21)                 1.0934         estimate D2E/DX2                !
 ! R16   R(5,22)                 1.0976         estimate D2E/DX2                !
 ! R17   R(6,7)                  1.5199         estimate D2E/DX2                !
 ! R18   R(6,8)                  1.5187         estimate D2E/DX2                !
 ! R19   R(6,9)                  1.5496         estimate D2E/DX2                !
 ! R20   R(7,8)                  1.4987         estimate D2E/DX2                !
 ! R21   R(7,23)                 1.0842         estimate D2E/DX2                !
 ! R22   R(7,24)                 1.0839         estimate D2E/DX2                !
 ! R23   R(8,25)                 1.0848         estimate D2E/DX2                !
 ! R24   R(8,26)                 1.0827         estimate D2E/DX2                !
 ! R25   R(9,10)                 1.5169         estimate D2E/DX2                !
 ! R26   R(9,11)                 1.523          estimate D2E/DX2                !
 ! R27   R(9,12)                 1.5191         estimate D2E/DX2                !
 ! R28   R(10,27)                1.0973         estimate D2E/DX2                !
 ! R29   R(10,28)                1.0989         estimate D2E/DX2                !
 ! R30   R(11,12)                1.4954         estimate D2E/DX2                !
 ! R31   R(11,29)                1.0827         estimate D2E/DX2                !
 ! R32   R(11,30)                1.0849         estimate D2E/DX2                !
 ! R33   R(12,31)                1.0842         estimate D2E/DX2                !
 ! R34   R(12,32)                1.084          estimate D2E/DX2                !
 ! A1    A(2,1,13)             112.3344         estimate D2E/DX2                !
 ! A2    A(2,1,14)             109.6583         estimate D2E/DX2                !
 ! A3    A(2,1,15)             111.2766         estimate D2E/DX2                !
 ! A4    A(13,1,14)            107.4105         estimate D2E/DX2                !
 ! A5    A(13,1,15)            109.0513         estimate D2E/DX2                !
 ! A6    A(14,1,15)            106.8909         estimate D2E/DX2                !
 ! A7    A(1,2,3)              118.0937         estimate D2E/DX2                !
 ! A8    A(1,2,16)             108.7374         estimate D2E/DX2                !
 ! A9    A(1,2,17)             106.9212         estimate D2E/DX2                !
 ! A10   A(3,2,16)             109.1573         estimate D2E/DX2                !
 ! A11   A(3,2,17)             107.6871         estimate D2E/DX2                !
 ! A12   A(16,2,17)            105.5201         estimate D2E/DX2                !
 ! A13   A(2,3,4)              115.1607         estimate D2E/DX2                !
 ! A14   A(2,3,10)             113.9587         estimate D2E/DX2                !
 ! A15   A(2,3,18)             103.3974         estimate D2E/DX2                !
 ! A16   A(4,3,10)             112.4788         estimate D2E/DX2                !
 ! A17   A(4,3,18)             105.7516         estimate D2E/DX2                !
 ! A18   A(10,3,18)            104.6791         estimate D2E/DX2                !
 ! A19   A(3,4,5)              114.8678         estimate D2E/DX2                !
 ! A20   A(3,4,19)             107.653          estimate D2E/DX2                !
 ! A21   A(3,4,20)             110.2883         estimate D2E/DX2                !
 ! A22   A(5,4,19)             107.6938         estimate D2E/DX2                !
 ! A23   A(5,4,20)             109.812          estimate D2E/DX2                !
 ! A24   A(19,4,20)            106.1029         estimate D2E/DX2                !
 ! A25   A(4,5,6)              111.3503         estimate D2E/DX2                !
 ! A26   A(4,5,21)             111.2634         estimate D2E/DX2                !
 ! A27   A(4,5,22)             108.4878         estimate D2E/DX2                !
 ! A28   A(6,5,21)             108.7521         estimate D2E/DX2                !
 ! A29   A(6,5,22)             111.0032         estimate D2E/DX2                !
 ! A30   A(21,5,22)            105.8567         estimate D2E/DX2                !
 ! A31   A(5,6,7)              116.9281         estimate D2E/DX2                !
 ! A32   A(5,6,8)              115.5879         estimate D2E/DX2                !
 ! A33   A(5,6,9)              112.7475         estimate D2E/DX2                !
 ! A34   A(7,6,9)              119.7131         estimate D2E/DX2                !
 ! A35   A(8,6,9)              122.8958         estimate D2E/DX2                !
 ! A36   A(6,7,23)             118.1542         estimate D2E/DX2                !
 ! A37   A(6,7,24)             118.7132         estimate D2E/DX2                !
 ! A38   A(8,7,23)             117.8939         estimate D2E/DX2                !
 ! A39   A(8,7,24)             118.1108         estimate D2E/DX2                !
 ! A40   A(23,7,24)            113.6588         estimate D2E/DX2                !
 ! A41   A(6,8,25)             118.6072         estimate D2E/DX2                !
 ! A42   A(6,8,26)             119.2937         estimate D2E/DX2                !
 ! A43   A(7,8,25)             117.8528         estimate D2E/DX2                !
 ! A44   A(7,8,26)             118.175          estimate D2E/DX2                !
 ! A45   A(25,8,26)            112.9642         estimate D2E/DX2                !
 ! A46   A(6,9,10)             112.8421         estimate D2E/DX2                !
 ! A47   A(6,9,11)             121.7394         estimate D2E/DX2                !
 ! A48   A(6,9,12)             120.7382         estimate D2E/DX2                !
 ! A49   A(10,9,11)            114.7223         estimate D2E/DX2                !
 ! A50   A(10,9,12)            117.8868         estimate D2E/DX2                !
 ! A51   A(3,10,9)             114.3197         estimate D2E/DX2                !
 ! A52   A(3,10,27)            110.0325         estimate D2E/DX2                !
 ! A53   A(3,10,28)            107.993          estimate D2E/DX2                !
 ! A54   A(9,10,27)            111.3669         estimate D2E/DX2                !
 ! A55   A(9,10,28)            106.9346         estimate D2E/DX2                !
 ! A56   A(27,10,28)           105.7269         estimate D2E/DX2                !
 ! A57   A(9,11,29)            119.4515         estimate D2E/DX2                !
 ! A58   A(9,11,30)            118.6313         estimate D2E/DX2                !
 ! A59   A(12,11,29)           118.0581         estimate D2E/DX2                !
 ! A60   A(12,11,30)           117.8361         estimate D2E/DX2                !
 ! A61   A(29,11,30)           112.9527         estimate D2E/DX2                !
 ! A62   A(9,12,31)            118.0016         estimate D2E/DX2                !
 ! A63   A(9,12,32)            118.882          estimate D2E/DX2                !
 ! A64   A(11,12,31)           117.9732         estimate D2E/DX2                !
 ! A65   A(11,12,32)           117.7167         estimate D2E/DX2                !
 ! A66   A(31,12,32)           113.7293         estimate D2E/DX2                !
 ! D1    D(13,1,2,3)           -56.1412         estimate D2E/DX2                !
 ! D2    D(13,1,2,16)           68.8802         estimate D2E/DX2                !
 ! D3    D(13,1,2,17)         -177.6332         estimate D2E/DX2                !
 ! D4    D(14,1,2,3)          -175.4992         estimate D2E/DX2                !
 ! D5    D(14,1,2,16)          -50.4778         estimate D2E/DX2                !
 ! D6    D(14,1,2,17)           63.0087         estimate D2E/DX2                !
 ! D7    D(15,1,2,3)            66.4528         estimate D2E/DX2                !
 ! D8    D(15,1,2,16)         -168.5258         estimate D2E/DX2                !
 ! D9    D(15,1,2,17)          -55.0392         estimate D2E/DX2                !
 ! D10   D(1,2,3,4)            -46.9105         estimate D2E/DX2                !
 ! D11   D(1,2,3,10)            85.2322         estimate D2E/DX2                !
 ! D12   D(1,2,3,18)          -161.7575         estimate D2E/DX2                !
 ! D13   D(16,2,3,4)          -171.7254         estimate D2E/DX2                !
 ! D14   D(16,2,3,10)          -39.5827         estimate D2E/DX2                !
 ! D15   D(16,2,3,18)           73.4276         estimate D2E/DX2                !
 ! D16   D(17,2,3,4)            74.189          estimate D2E/DX2                !
 ! D17   D(17,2,3,10)         -153.6683         estimate D2E/DX2                !
 ! D18   D(17,2,3,18)          -40.6579         estimate D2E/DX2                !
 ! D19   D(2,3,4,5)             85.5779         estimate D2E/DX2                !
 ! D20   D(2,3,4,19)          -154.4852         estimate D2E/DX2                !
 ! D21   D(2,3,4,20)           -39.1465         estimate D2E/DX2                !
 ! D22   D(10,3,4,5)           -47.2579         estimate D2E/DX2                !
 ! D23   D(10,3,4,19)           72.679          estimate D2E/DX2                !
 ! D24   D(10,3,4,20)         -171.9823         estimate D2E/DX2                !
 ! D25   D(18,3,4,5)          -160.9395         estimate D2E/DX2                !
 ! D26   D(18,3,4,19)          -41.0025         estimate D2E/DX2                !
 ! D27   D(18,3,4,20)           74.3362         estimate D2E/DX2                !
 ! D28   D(2,3,10,9)           -87.9239         estimate D2E/DX2                !
 ! D29   D(2,3,10,27)           38.2576         estimate D2E/DX2                !
 ! D30   D(2,3,10,28)          153.2036         estimate D2E/DX2                !
 ! D31   D(4,3,10,9)            45.4983         estimate D2E/DX2                !
 ! D32   D(4,3,10,27)          171.6798         estimate D2E/DX2                !
 ! D33   D(4,3,10,28)          -73.3742         estimate D2E/DX2                !
 ! D34   D(18,3,10,9)          159.8347         estimate D2E/DX2                !
 ! D35   D(18,3,10,27)         -73.9838         estimate D2E/DX2                !
 ! D36   D(18,3,10,28)          40.9622         estimate D2E/DX2                !
 ! D37   D(3,4,5,6)             51.4424         estimate D2E/DX2                !
 ! D38   D(3,4,5,21)           -70.0571         estimate D2E/DX2                !
 ! D39   D(3,4,5,22)           173.8861         estimate D2E/DX2                !
 ! D40   D(19,4,5,6)           -68.472          estimate D2E/DX2                !
 ! D41   D(19,4,5,21)          170.0284         estimate D2E/DX2                !
 ! D42   D(19,4,5,22)           53.9717         estimate D2E/DX2                !
 ! D43   D(20,4,5,6)           176.4164         estimate D2E/DX2                !
 ! D44   D(20,4,5,21)           54.9169         estimate D2E/DX2                !
 ! D45   D(20,4,5,22)          -61.1399         estimate D2E/DX2                !
 ! D46   D(4,5,6,7)             91.5997         estimate D2E/DX2                !
 ! D47   D(4,5,6,8)            158.3129         estimate D2E/DX2                !
 ! D48   D(4,5,6,9)            -53.0664         estimate D2E/DX2                !
 ! D49   D(21,5,6,7)          -145.4499         estimate D2E/DX2                !
 ! D50   D(21,5,6,8)           -78.7367         estimate D2E/DX2                !
 ! D51   D(21,5,6,9)            69.8839         estimate D2E/DX2                !
 ! D52   D(22,5,6,7)           -29.3826         estimate D2E/DX2                !
 ! D53   D(22,5,6,8)            37.3306         estimate D2E/DX2                !
 ! D54   D(22,5,6,9)          -174.0488         estimate D2E/DX2                !
 ! D55   D(5,6,7,23)          -147.0611         estimate D2E/DX2                !
 ! D56   D(5,6,7,24)            -2.7586         estimate D2E/DX2                !
 ! D57   D(9,6,7,23)            -4.9475         estimate D2E/DX2                !
 ! D58   D(9,6,7,24)           139.355          estimate D2E/DX2                !
 ! D59   D(5,6,8,25)             0.2533         estimate D2E/DX2                !
 ! D60   D(5,6,8,26)           144.8944         estimate D2E/DX2                !
 ! D61   D(9,6,8,25)          -144.864          estimate D2E/DX2                !
 ! D62   D(9,6,8,26)            -0.2228         estimate D2E/DX2                !
 ! D63   D(5,6,9,10)            52.3541         estimate D2E/DX2                !
 ! D64   D(5,6,9,11)          -165.0692         estimate D2E/DX2                !
 ! D65   D(5,6,9,12)           -94.8884         estimate D2E/DX2                !
 ! D66   D(7,6,9,10)           -91.2263         estimate D2E/DX2                !
 ! D67   D(7,6,9,11)            51.3503         estimate D2E/DX2                !
 ! D68   D(7,6,9,12)           121.5311         estimate D2E/DX2                !
 ! D69   D(8,6,9,10)          -161.6543         estimate D2E/DX2                !
 ! D70   D(8,6,9,11)           -19.0776         estimate D2E/DX2                !
 ! D71   D(8,6,9,12)            51.1032         estimate D2E/DX2                !
 ! D72   D(23,7,8,25)          142.884          estimate D2E/DX2                !
 ! D73   D(23,7,8,26)            1.2897         estimate D2E/DX2                !
 ! D74   D(24,7,8,25)           -0.0112         estimate D2E/DX2                !
 ! D75   D(24,7,8,26)         -141.6054         estimate D2E/DX2                !
 ! D76   D(6,9,10,3)           -48.282          estimate D2E/DX2                !
 ! D77   D(6,9,10,27)         -173.7652         estimate D2E/DX2                !
 ! D78   D(6,9,10,28)           71.187          estimate D2E/DX2                !
 ! D79   D(11,9,10,3)          166.3962         estimate D2E/DX2                !
 ! D80   D(11,9,10,27)          40.913          estimate D2E/DX2                !
 ! D81   D(11,9,10,28)         -74.1348         estimate D2E/DX2                !
 ! D82   D(12,9,10,3)           99.971          estimate D2E/DX2                !
 ! D83   D(12,9,10,27)         -25.5123         estimate D2E/DX2                !
 ! D84   D(12,9,10,28)        -140.56           estimate D2E/DX2                !
 ! D85   D(6,9,11,29)            1.6909         estimate D2E/DX2                !
 ! D86   D(6,9,11,30)         -143.2437         estimate D2E/DX2                !
 ! D87   D(10,9,11,29)         143.6261         estimate D2E/DX2                !
 ! D88   D(10,9,11,30)          -1.3085         estimate D2E/DX2                !
 ! D89   D(6,9,12,31)           -2.7512         estimate D2E/DX2                !
 ! D90   D(6,9,12,32)          141.7213         estimate D2E/DX2                !
 ! D91   D(10,9,12,31)        -148.4068         estimate D2E/DX2                !
 ! D92   D(10,9,12,32)          -3.9344         estimate D2E/DX2                !
 ! D93   D(29,11,12,31)          1.6153         estimate D2E/DX2                !
 ! D94   D(29,11,12,32)       -140.9216         estimate D2E/DX2                !
 ! D95   D(30,11,12,31)        142.9848         estimate D2E/DX2                !
 ! D96   D(30,11,12,32)          0.4478         estimate D2E/DX2                !
 --------------------------------------------------------------------------------
 Trust Radius=3.00D-01 FncErr=1.00D-07 GrdErr=1.00D-06 EigMax=2.50D+02 EigMin=1.00D-04
 Number of steps in this run=    192 maximum allowed number of steps=    192.
 GradGradGradGradGradGradGradGradGradGradGradGradGradGradGradGradGradGrad

                          Input orientation:                          
 ---------------------------------------------------------------------
 Center     Atomic      Atomic             Coordinates (Angstroms)
 Number     Number       Type             X           Y           Z
 ---------------------------------------------------------------------
      1          6           0        0.919630   -0.058260   -0.012100
      2          6           0        0.754180    0.429890    1.415510
      3          6           0        1.449870    1.748950    1.818520
      4          6           0        2.919330    1.873160    1.381790
      5          6           0        3.125680    2.404410   -0.036620
      6          6           0        2.358080    3.690700   -0.260790
      7          6           0        3.093530    4.989860    0.024740
      8          6           0        2.862590    4.566560   -1.394230
      9          6           0        0.856470    3.562950    0.099720
     10          6           0        0.630640    3.012260    1.495000
     11          6           0       -0.166300    4.598120   -0.349760
     12          6           0       -0.173360    3.236600   -0.968210
     13          1           0        0.601620    0.684820   -0.743430
     14          1           0        0.308950   -0.954180   -0.168330
     15          1           0        1.956190   -0.340440   -0.217440
     16          1           0       -0.316990    0.504450    1.640560
     17          1           0        1.137730   -0.363550    2.071170
     18          1           0        1.467880    1.702170    2.918450
     19          1           0        3.415050    2.567690    2.073910
     20          1           0        3.432660    0.911260    1.496660
     21          1           0        2.809900    1.671800   -0.784270
     22          1           0        4.200730    2.554420   -0.199120
     23          1           0        2.521080    5.829270    0.403230
     24          1           0        4.103960    4.941530    0.414120
     25          1           0        3.719230    4.230380   -1.968650
     26          1           0        2.151410    5.128780   -1.986120
     27          1           0       -0.434390    2.828420    1.684710
     28          1           0        0.927510    3.799570    2.201770
     29          1           0        0.154180    5.432990   -0.960030
     30          1           0       -0.978140    4.853040    0.323190
     31          1           0        0.168350    3.141650   -1.992780
     32          1           0       -0.994150    2.573880   -0.718930
 ---------------------------------------------------------------------
                    Distance matrix (angstroms):
                    1          2          3          4          5
     1  C    0.000000
     2  C    1.517806   0.000000
     3  C    2.626468   1.544772   0.000000
     4  C    3.110002   2.602314   1.538010   0.000000
     5  C    3.306358   3.410487   2.584475   1.528625   0.000000
     6  C    4.023144   4.001919   2.986431   2.513269   1.514597
     7  C    5.496427   5.310379   4.052501   3.403785   2.586378
     8  C    5.203301   5.426976   4.500718   3.868321   2.566557
     9  C    3.623487   3.399681   2.568461   2.958798   2.551493
    10  C    3.432631   2.586545   1.540050   2.558997   2.990078
    11  C    4.793238   4.619264   3.928258   4.465958   3.968319
    12  C    3.600677   3.797377   3.551597   4.116576   3.527615
    13  H    1.090019   2.179286   2.900946   3.361620   3.134876
    14  H    1.095450   2.149983   3.543470   4.148591   4.385367
    15  H    1.093731   2.169046   2.960919   2.895721   2.989081
    16  H    2.139429   1.097092   2.168466   3.523364   4.274899
    17  H    2.116786   1.098430   2.150330   2.941465   4.007035
    18  H    3.462342   2.094491   1.101072   2.120676   3.460330
    19  H    4.180212   3.476192   2.144176   1.098699   2.136523
    20  H    3.087336   2.722601   2.176413   1.096337   2.162101
    21  H    2.676280   3.256894   2.937712   2.178150   1.093350
    22  H    4.198415   4.358826   3.505265   2.146014   1.097562
    23  H    6.115566   5.770611   4.449668   4.094751   3.505521
    24  H    5.943023   5.707776   4.382819   3.428502   2.756298
    25  H    5.482543   5.889634   5.064597   4.173940   2.723822
    26  H    5.685017   5.966817   5.137187   4.746744   3.488831
    27  H    3.611849   2.690374   2.175683   3.500246   3.977042
    28  H    4.447936   3.464533   2.150531   2.889770   3.433484
    29  H    5.624794   5.570835   4.792839   5.079623   4.342211
    30  H    5.275871   4.874254   4.215047   5.019023   4.792347
    31  H    3.837569   4.394688   4.255340   4.534830   3.621586
    32  H    3.330214   3.494164   3.618342   4.496594   4.179386
                    6          7          8          9         10
     6  C    0.000000
     7  C    1.519944   0.000000
     8  C    1.518666   1.498663   0.000000
     9  C    1.549555   2.654455   2.695114   0.000000
    10  C    2.554825   3.484020   3.968009   1.516926   0.000000
    11  C    2.683993   3.304573   3.204074   1.523046   2.559923
    12  C    2.667365   3.838286   3.341748   1.519055   2.600798
    13  H    3.514741   5.033197   4.539100   3.009897   3.229301
    14  H    5.077637   6.566793   6.205037   4.558080   4.313096
    15  H    4.051356   5.455666   5.126894   4.067730   3.991257
    16  H    4.574202   5.861862   5.985016   3.620168   2.684828
    17  H    4.833656   6.055743   6.268183   4.402627   3.461966
    18  H    3.854124   4.671745   5.361824   3.432428   2.107965
    19  H    2.798064   3.188947   4.040877   3.381464   2.878492
    20  H    3.459572   4.349314   4.695045   3.952171   3.502216
    21  H    2.134041   3.427020   2.958794   2.858982   3.426526
    22  H    2.165709   2.684655   2.695851   3.505783   3.978090
    23  H    2.245211   1.084234   2.223045   2.828295   3.563884
    24  H    2.251261   1.083938   2.225249   3.541966   4.117564
    25  H    2.249615   2.223042   1.084808   3.594303   4.797924
    26  H    2.255560   2.224960   1.082683   2.911945   4.348631
    27  H    3.510895   4.457975   4.834364   2.172107   1.097304
    28  H    2.850015   3.293614   4.155000   2.116518   1.098869
    29  H    2.895114   3.131440   2.876580   2.261268   3.480534
    30  H    3.580842   4.084885   4.216967   2.253900   2.711048
    31  H    2.845376   4.005365   3.106052   2.242668   3.520662
    32  H    3.562952   4.806156   4.393318   2.252386   2.780936
                   11         12         13         14         15
    11  C    0.000000
    12  C    1.495415   0.000000
    13  H    4.007318   2.676322   0.000000
    14  H    5.575555   4.293608   1.761453   0.000000
    15  H    5.376974   4.230113   1.778393   1.758547   0.000000
    16  H    4.554362   3.780338   2.561208   2.406551   3.055053
    17  H    5.672704   4.890590   3.050978   2.459894   2.430668
    18  H    4.662431   4.489351   3.898047   4.234091   3.774190
    19  H    4.777331   4.751697   4.404315   5.203755   3.979419
    20  H    5.473090   4.948350   3.617190   4.001203   2.585509
    21  H    4.196417   3.373762   2.419152   3.678302   2.258147
    22  H    4.823935   4.493276   4.092099   5.239959   3.663128
    23  H    3.050366   3.982812   5.609325   7.157890   6.226528
    24  H    4.351616   4.807607   5.632574   7.035677   5.736810
    25  H    4.225326   4.140137   4.877669   6.461488   5.202638
    26  H    2.886356   3.165603   4.867742   6.610705   5.751409
    27  H    2.709756   2.696800   3.400618   4.277192   4.401673
    28  H    2.888669   3.402591   4.299078   5.347722   4.904125
    29  H    1.082656   2.220693   4.774122   6.437910   6.093535
    30  H    1.084864   2.219969   4.583381   5.968417   5.989558
    31  H    2.220993   1.084216   2.790092   4.486002   4.298041
    32  H    2.217920   1.083990   2.472980   3.801110   4.177231
                   16         17         18         19         20
    16  H    0.000000
    17  H    1.747873   0.000000
    18  H    2.500659   2.257007   0.000000
    19  H    4.286359   3.711922   2.292126   0.000000
    20  H    3.774398   2.687360   2.550958   1.754220   0.000000
    21  H    4.125524   3.884886   3.938537   3.055817   2.483726
    22  H    5.291181   4.801118   4.232498   2.405023   2.483058
    23  H    6.159491   6.560998   4.946566   3.772036   5.119901
    24  H    6.382526   6.299858   4.869706   2.977351   4.226773
    25  H    6.572672   6.639916   5.945096   4.381707   4.806980
    26  H    6.374185   6.903248   6.021933   4.963850   5.617725
    27  H    2.327352   3.579048   2.531637   3.877840   4.320294
    28  H    3.566729   4.170470   2.281385   2.778800   3.887839
    29  H    5.592457   6.614788   5.539624   5.296037   6.101623
    30  H    4.591603   5.894502   4.758820   5.252425   6.030739
    31  H    4.515699   5.453606   5.280252   5.235309   5.273192
    32  H    3.210651   4.577998   4.477946   5.219295   5.222049
                   21         22         23         24         25
    21  H    0.000000
    22  H    1.748092   0.000000
    23  H    4.333374   3.729436   0.000000
    24  H    3.715086   2.466520   1.814858   0.000000
    25  H    2.962426   2.484335   3.101262   2.516216   0.000000
    26  H    3.718705   3.744384   2.517208   3.099785   1.807066
    27  H    4.237812   5.010811   4.402510   5.164906   5.706583
    28  H    4.121557   4.246015   3.145456   3.819633   5.037033
    29  H    4.607634   5.023914   2.760024   4.210770   3.895275
    30  H    5.069122   5.690093   3.633727   5.083684   5.263603
    31  H    3.255571   4.452207   4.301105   4.951945   3.714117
    32  H    3.910091   5.220858   4.920737   5.734134   5.149927
                   26         27         28         29         30
    26  H    0.000000
    27  H    5.045098   0.000000
    28  H    4.561047   1.750787   0.000000
    29  H    2.265906   3.758304   3.641851   0.000000
    30  H    3.899106   2.499697   2.875824   1.806971   0.000000
    31  H    2.807358   3.739698   4.313170   2.513367   3.099518
    32  H    4.245919   2.481050   3.704805   3.090518   2.506161
                   31         32
    31  H    0.000000
    32  H    1.815616   0.000000
 Stoichiometry    C12H20
 Framework group  C1[X(C12H20)]
 Deg. of freedom    90
 Full point group                 C1      NOp   1
 Largest Abelian subgroup         C1      NOp   1
 Largest concise Abelian subgroup C1      NOp   1
                         Standard orientation:                         
 ---------------------------------------------------------------------
 Center     Atomic      Atomic             Coordinates (Angstroms)
 Number     Number       Type             X           Y           Z
 ---------------------------------------------------------------------
      1          6           0        2.577499    0.194563    1.364240
      2          6           0        2.724194    0.182613   -0.146413
      3          6           0        1.542921   -0.349321   -0.987817
      4          6           0        0.940522   -1.678546   -0.502276
      5          6           0       -0.125814   -1.542116    0.584466
      6          6           0       -1.196474   -0.548170    0.184763
      7          6           0       -2.413750   -1.101205   -0.538163
      8          6           0       -2.528059   -0.695428    0.899985
      9          6           0       -0.613086    0.825142   -0.233320
     10          6           0        0.466090    0.708543   -1.292965
     11          6           0       -1.488892    2.065719   -0.349928
     12          6           0       -0.503780    1.960270    0.770207
     13          1           0        1.700349    0.753216    1.690824
     14          1           0        3.455341    0.669242    1.815995
     15          1           0        2.523628   -0.821355    1.765806
     16          1           0        2.979436    1.194881   -0.483723
     17          1           0        3.603034   -0.434500   -0.377409
     18          1           0        2.003164   -0.568543   -1.963766
     19          1           0        0.474302   -2.168963   -1.367880
     20          1           0        1.734269   -2.353601   -0.161365
     21          1           0        0.313642   -1.222773    1.533315
     22          1           0       -0.559286   -2.532663    0.773043
     23          1           0       -2.895245   -0.475756   -1.281493
     24          1           0       -2.443273   -2.158684   -0.774359
     25          1           0       -2.635600   -1.480329    1.641048
     26          1           0       -3.102971    0.190875    1.136934
     27          1           0        0.938141    1.679058   -1.491323
     28          1           0       -0.033951    0.423669   -2.229084
     29          1           0       -2.542382    1.998109   -0.109651
     30          1           0       -1.280513    2.776522   -1.142561
     31          1           0       -0.887149    1.793933    1.770649
     32          1           0        0.366841    2.605279    0.738327
 ---------------------------------------------------------------------
 Rotational constants (GHZ):           1.3458105           0.8121656           0.6693171
 Standard basis: 6-31G(d) (6D, 7F)
 There are   220 symmetry adapted cartesian basis functions of A   symmetry.
 There are   220 symmetry adapted basis functions of A   symmetry.
   220 basis functions,   416 primitive gaussians,   220 cartesian basis functions
    46 alpha electrons       46 beta electrons
       nuclear repulsion energy       767.9904056281 Hartrees.
 NAtoms=   32 NActive=   32 NUniq=   32 SFac= 1.00D+00 NAtFMM=   60 NAOKFM=F Big=F
 Integral buffers will be    131072 words long.
 Raffenetti 2 integral format.
 Two-electron integral symmetry is turned on.
 Nuclear repulsion after empirical dispersion term =      767.9302700477 Hartrees.
 One-electron integrals computed using PRISM.
 NBasis=   220 RedAO= T EigKep=  2.87D-03  NBF=   220
 NBsUse=   220 1.00D-06 EigRej= -1.00D+00 NBFU=   220
 ExpMin= 1.61D-01 ExpMax= 3.05D+03 ExpMxC= 4.57D+02 IAcc=3 IRadAn=         5 AccDes= 0.00D+00
 Harris functional with IExCor=  402 and IRadAn=       5 diagonalized for initial guess.
 HarFok:  IExCor=  402 AccDes= 0.00D+00 IRadAn=         5 IDoV= 1 UseB2=F ITyADJ=14
 ICtDFT=  3500011 ScaDFX=  1.000000  1.000000  1.000000  1.000000
 FoFCou: FMM=F IPFlag=           0 FMFlag=      100000 FMFlg1=           0
         NFxFlg=           0 DoJE=T BraDBF=F KetDBF=T FulRan=T
         wScrn=  0.000000 ICntrl=       500 IOpCl=  0 I1Cent=   200000004 NGrid=           0
         NMat0=    1 NMatS0=      1 NMatT0=    0 NMatD0=    1 NMtDS0=    0 NMtDT0=    0
 Petite list used in FoFCou.
 Keep R1 ints in memory in canonical form, NReq=300898800.
 Requested convergence on RMS density matrix=1.00D-08 within  32 cycles.
 Requested convergence on MAX density matrix=1.00D-06.
 Requested convergence on             energy=1.00D-06.
 No special actions if energy rises.
 Integral accuracy reduced to 1.0D-05 until final iterations.
 Initial convergence to 1.0D-05 achieved.  Increase integral accuracy.
 SCF Done:  E(RB3LYP) =  -469.323389337     A.U. after   13 cycles
            NFock= 13  Conv=0.36D-08     -V/T= 2.0100
 QCSCF skips out because SCF is already converged.

 **********************************************************************

            Population analysis using the SCF density.

 **********************************************************************

 Orbital symmetries:
       Occupied  (A) (A) (A) (A) (A) (A) (A) (A) (A) (A) (A) (A)
                 (A) (A) (A) (A) (A) (A) (A) (A) (A) (A) (A) (A)
                 (A) (A) (A) (A) (A) (A) (A) (A) (A) (A) (A) (A)
                 (A) (A) (A) (A) (A) (A) (A) (A) (A) (A)
       Virtual   (A) (A) (A) (A) (A) (A) (A) (A) (A) (A) (A) (A)
                 (A) (A) (A) (A) (A) (A) (A) (A) (A) (A) (A) (A)
                 (A) (A) (A) (A) (A) (A) (A) (A) (A) (A) (A) (A)
                 (A) (A) (A) (A) (A) (A) (A) (A) (A) (A) (A) (A)
                 (A) (A) (A) (A) (A) (A) (A) (A) (A) (A) (A) (A)
                 (A) (A) (A) (A) (A) (A) (A) (A) (A) (A) (A) (A)
                 (A) (A) (A) (A) (A) (A) (A) (A) (A) (A) (A) (A)
                 (A) (A) (A) (A) (A) (A) (A) (A) (A) (A) (A) (A)
                 (A) (A) (A) (A) (A) (A) (A) (A) (A) (A) (A) (A)
                 (A) (A) (A) (A) (A) (A) (A) (A) (A) (A) (A) (A)
                 (A) (A) (A) (A) (A) (A) (A) (A) (A) (A) (A) (A)
                 (A) (A) (A) (A) (A) (A) (A) (A) (A) (A) (A) (A)
                 (A) (A) (A) (A) (A) (A) (A) (A) (A) (A) (A) (A)
                 (A) (A) (A) (A) (A) (A) (A) (A) (A) (A) (A) (A)
                 (A) (A) (A) (A) (A) (A)
 The electronic state is 1-A.
 Alpha  occ. eigenvalues --  -10.19383 -10.19324 -10.17773 -10.17717 -10.17707
 Alpha  occ. eigenvalues --  -10.17663 -10.17602 -10.17306 -10.17206 -10.17178
 Alpha  occ. eigenvalues --  -10.17145 -10.16319  -0.87465  -0.83189  -0.80497
 Alpha  occ. eigenvalues --   -0.74353  -0.71554  -0.66776  -0.61391  -0.59620
 Alpha  occ. eigenvalues --   -0.59151  -0.58605  -0.54639  -0.50660  -0.49039
 Alpha  occ. eigenvalues --   -0.47351  -0.46705  -0.44901  -0.43609  -0.41529
 Alpha  occ. eigenvalues --   -0.40137  -0.40028  -0.38763  -0.36625  -0.36112
 Alpha  occ. eigenvalues --   -0.35836  -0.35652  -0.35388  -0.32945  -0.32242
 Alpha  occ. eigenvalues --   -0.30594  -0.29904  -0.29253  -0.27882  -0.25898
 Alpha  occ. eigenvalues --   -0.24569
 Alpha virt. eigenvalues --    0.07670   0.09527   0.10052   0.10539   0.12629
 Alpha virt. eigenvalues --    0.13133   0.13685   0.14126   0.14736   0.15473
 Alpha virt. eigenvalues --    0.15873   0.16823   0.17271   0.17800   0.18947
 Alpha virt. eigenvalues --    0.20073   0.20533   0.20626   0.21122   0.21936
 Alpha virt. eigenvalues --    0.22777   0.23727   0.24050   0.24261   0.24408
 Alpha virt. eigenvalues --    0.25033   0.26665   0.28020   0.29668   0.30707
 Alpha virt. eigenvalues --    0.32684   0.33698   0.35164   0.37801   0.47871
 Alpha virt. eigenvalues --    0.49153   0.50764   0.51357   0.52642   0.54205
 Alpha virt. eigenvalues --    0.54383   0.55934   0.58636   0.59742   0.61534
 Alpha virt. eigenvalues --    0.62319   0.62436   0.63794   0.64203   0.65421
 Alpha virt. eigenvalues --    0.66624   0.68785   0.70319   0.71440   0.72208
 Alpha virt. eigenvalues --    0.73160   0.73838   0.76325   0.77515   0.79630
 Alpha virt. eigenvalues --    0.80369   0.81039   0.82551   0.84212   0.84759
 Alpha virt. eigenvalues --    0.85517   0.86314   0.87391   0.88283   0.89292
 Alpha virt. eigenvalues --    0.89538   0.90619   0.90999   0.92186   0.93142
 Alpha virt. eigenvalues --    0.95053   0.96203   0.96847   0.97308   0.98564
 Alpha virt. eigenvalues --    0.98796   1.00275   1.00616   1.02125   1.02780
 Alpha virt. eigenvalues --    1.06078   1.10676   1.13094   1.15877   1.17979
 Alpha virt. eigenvalues --    1.21747   1.23077   1.28065   1.29713   1.32646
 Alpha virt. eigenvalues --    1.33305   1.43317   1.46645   1.50075   1.52992
 Alpha virt. eigenvalues --    1.56089   1.57692   1.64204   1.66623   1.68694
 Alpha virt. eigenvalues --    1.71594   1.72349   1.75148   1.77135   1.80138
 Alpha virt. eigenvalues --    1.80772   1.83949   1.84976   1.87516   1.89279
 Alpha virt. eigenvalues --    1.91566   1.92538   1.94106   1.95726   1.96503
 Alpha virt. eigenvalues --    1.98021   2.00151   2.00738   2.04412   2.05696
 Alpha virt. eigenvalues --    2.07155   2.08600   2.11179   2.16706   2.18678
 Alpha virt. eigenvalues --    2.18894   2.19592   2.22010   2.26620   2.29810
 Alpha virt. eigenvalues --    2.30966   2.32823   2.33130   2.33879   2.36178
 Alpha virt. eigenvalues --    2.36722   2.38456   2.40629   2.43299   2.44664
 Alpha virt. eigenvalues --    2.49284   2.54351   2.55491   2.56294   2.56648
 Alpha virt. eigenvalues --    2.58257   2.60348   2.64651   2.67549   2.71442
 Alpha virt. eigenvalues --    2.75021   2.77577   2.78600   2.80190   2.86720
 Alpha virt. eigenvalues --    2.88391   2.92871   4.08868   4.15373   4.23991
 Alpha virt. eigenvalues --    4.27903   4.33030   4.38739   4.42681   4.47004
 Alpha virt. eigenvalues --    4.55212   4.63764   4.68205   4.74299
          Condensed to atoms (all electrons):
               1          2          3          4          5          6
     1  C    5.095829   0.375059  -0.044363  -0.006312  -0.001123  -0.000111
     2  C    0.375059   4.992118   0.386514  -0.044453  -0.003474  -0.000553
     3  C   -0.044363   0.386514   4.917101   0.381726  -0.034094  -0.018247
     4  C   -0.006312  -0.044453   0.381726   5.063465   0.363901  -0.039593
     5  C   -0.001123  -0.003474  -0.034094   0.363901   5.050138   0.402131
     6  C   -0.000111  -0.000553  -0.018247  -0.039593   0.402131   4.793873
     7  C   -0.000011   0.000014  -0.001266  -0.004802  -0.047287   0.291437
     8  C    0.000020  -0.000019   0.000620   0.005310  -0.032433   0.280062
     9  C    0.000918  -0.001520  -0.034272  -0.018924  -0.035056   0.428707
    10  C   -0.001967  -0.044587   0.371747  -0.047903  -0.018414  -0.034767
    11  C    0.000232  -0.000208   0.005327   0.000491   0.004792  -0.024462
    12  C   -0.003916   0.001989  -0.003611  -0.000285  -0.003267  -0.033266
    13  H    0.376696  -0.036510  -0.003133  -0.000816  -0.000958  -0.000435
    14  H    0.365821  -0.028800   0.004753  -0.000020   0.000196  -0.000002
    15  H    0.377711  -0.033863  -0.005802   0.004600  -0.003011   0.000069
    16  H   -0.041994   0.371686  -0.037407   0.005366  -0.000186   0.000023
    17  H   -0.044568   0.371143  -0.033520  -0.002461  -0.000196  -0.000004
    18  H    0.006173  -0.045477   0.365386  -0.045156   0.005409   0.000530
    19  H    0.000051   0.005251  -0.035099   0.367929  -0.042869  -0.003469
    20  H   -0.000992  -0.005163  -0.038572   0.362153  -0.032553   0.004730
    21  H    0.002122   0.000618  -0.003625  -0.041828   0.363032  -0.034732
    22  H    0.000006   0.000008   0.004524  -0.034000   0.359193  -0.031920
    23  H   -0.000000   0.000000   0.000063   0.000192   0.003067  -0.022509
    24  H    0.000000  -0.000000   0.000063   0.000611  -0.005125  -0.022884
    25  H   -0.000001   0.000000  -0.000012   0.000195  -0.006730  -0.019280
    26  H   -0.000001   0.000000  -0.000013  -0.000115   0.002190  -0.019249
    27  H    0.000010  -0.008962  -0.034214   0.005006   0.000132   0.004440
    28  H   -0.000110   0.005835  -0.039190  -0.001541  -0.000673  -0.004068
    29  H   -0.000002   0.000002  -0.000115  -0.000010   0.000099  -0.006789
    30  H   -0.000006  -0.000002   0.000158  -0.000003  -0.000082   0.001815
    31  H   -0.000070  -0.000079   0.000125   0.000036   0.000237  -0.004063
    32  H   -0.000337   0.000149   0.000328   0.000055   0.000152   0.001933
               7          8          9         10         11         12
     1  C   -0.000011   0.000020   0.000918  -0.001967   0.000232  -0.003916
     2  C    0.000014  -0.000019  -0.001520  -0.044587  -0.000208   0.001989
     3  C   -0.001266   0.000620  -0.034272   0.371747   0.005327  -0.003611
     4  C   -0.004802   0.005310  -0.018924  -0.047903   0.000491  -0.000285
     5  C   -0.047287  -0.032433  -0.035056  -0.018414   0.004792  -0.003267
     6  C    0.291437   0.280062   0.428707  -0.034767  -0.024462  -0.033266
     7  C    5.190263   0.224046  -0.034966  -0.002993  -0.008040   0.005712
     8  C    0.224046   5.209829  -0.024515   0.004579  -0.004424  -0.006863
     9  C   -0.034966  -0.024515   4.804008   0.393707   0.268540   0.294461
    10  C   -0.002993   0.004579   0.393707   5.078173  -0.029354  -0.046709
    11  C   -0.008040  -0.004424   0.268540  -0.029354   5.233187   0.218941
    12  C    0.005712  -0.006863   0.294461  -0.046709   0.218941   5.185830
    13  H    0.000011  -0.000026   0.000602   0.001677  -0.000034   0.005914
    14  H    0.000000  -0.000000  -0.000003  -0.000066  -0.000005   0.000115
    15  H    0.000000  -0.000002   0.000090  -0.000119  -0.000005   0.000070
    16  H   -0.000001   0.000000  -0.000174  -0.008721  -0.000031   0.000045
    17  H    0.000000  -0.000000  -0.000128   0.005456   0.000004  -0.000012
    18  H   -0.000038   0.000010   0.005298  -0.042210  -0.000211  -0.000038
    19  H    0.004503  -0.000204  -0.001242  -0.000745  -0.000060   0.000066
    20  H    0.000084  -0.000212   0.000369   0.004891   0.000008  -0.000003
    21  H    0.006930  -0.006460  -0.005002   0.000400  -0.000180   0.002112
    22  H   -0.006545  -0.002121   0.004841   0.000181  -0.000114  -0.000011
    23  H    0.371714  -0.019832  -0.004079   0.000243   0.003559   0.000047
    24  H    0.370135  -0.019525   0.001871   0.000173   0.000095  -0.000117
    25  H   -0.020833   0.371359   0.001862  -0.000073  -0.000020   0.000224
    26  H   -0.018608   0.366644  -0.006823   0.000099   0.001415   0.000469
    27  H    0.000004  -0.000122  -0.032414   0.358181  -0.001168  -0.006551
    28  H    0.003580  -0.000202  -0.038950   0.357469  -0.009733   0.007875
    29  H    0.000451   0.001483  -0.018355   0.001986   0.365679  -0.017903
    30  H    0.000264  -0.000009  -0.020192  -0.006282   0.370722  -0.019884
    31  H    0.000016   0.003352  -0.022341   0.003211  -0.019826   0.370103
    32  H   -0.000120   0.000075  -0.022164  -0.005050  -0.019201   0.368930
              13         14         15         16         17         18
     1  C    0.376696   0.365821   0.377711  -0.041994  -0.044568   0.006173
     2  C   -0.036510  -0.028800  -0.033863   0.371686   0.371143  -0.045477
     3  C   -0.003133   0.004753  -0.005802  -0.037407  -0.033520   0.365386
     4  C   -0.000816  -0.000020   0.004600   0.005366  -0.002461  -0.045156
     5  C   -0.000958   0.000196  -0.003011  -0.000186  -0.000196   0.005409
     6  C   -0.000435  -0.000002   0.000069   0.000023  -0.000004   0.000530
     7  C    0.000011   0.000000   0.000000  -0.000001   0.000000  -0.000038
     8  C   -0.000026  -0.000000  -0.000002   0.000000  -0.000000   0.000010
     9  C    0.000602  -0.000003   0.000090  -0.000174  -0.000128   0.005298
    10  C    0.001677  -0.000066  -0.000119  -0.008721   0.005456  -0.042210
    11  C   -0.000034  -0.000005  -0.000005  -0.000031   0.000004  -0.000211
    12  C    0.005914   0.000115   0.000070   0.000045  -0.000012  -0.000038
    13  H    0.551670  -0.030409  -0.032274  -0.003437   0.005861  -0.000067
    14  H   -0.030409   0.594498  -0.032205  -0.005449  -0.003131  -0.000191
    15  H   -0.032274  -0.032205   0.577200   0.005681  -0.006450  -0.000001
    16  H   -0.003437  -0.005449   0.005681   0.621557  -0.038340  -0.000692
    17  H    0.005861  -0.003131  -0.006450  -0.038340   0.625981  -0.009388
    18  H   -0.000067  -0.000191  -0.000001  -0.000692  -0.009388   0.665730
    19  H   -0.000022   0.000003  -0.000074  -0.000190  -0.000147  -0.008676
    20  H    0.000216  -0.000093   0.001700   0.000073   0.003376  -0.001293
    21  H    0.001548   0.000125   0.002484  -0.000053   0.000047  -0.000102
    22  H    0.000042  -0.000004   0.000141   0.000005   0.000002  -0.000174
    23  H    0.000000  -0.000000  -0.000000   0.000000   0.000000  -0.000001
    24  H   -0.000000  -0.000000  -0.000000   0.000000   0.000000  -0.000002
    25  H    0.000000   0.000000   0.000000   0.000000   0.000000  -0.000000
    26  H    0.000001  -0.000000   0.000000   0.000000   0.000000  -0.000000
    27  H   -0.000039  -0.000042   0.000016   0.007147   0.000167  -0.000476
    28  H   -0.000023   0.000005   0.000001   0.000108  -0.000251  -0.009045
    29  H    0.000005   0.000000   0.000000   0.000000  -0.000000   0.000003
    30  H    0.000015   0.000000  -0.000000  -0.000002  -0.000000  -0.000006
    31  H    0.000485  -0.000011  -0.000005  -0.000002   0.000000   0.000002
    32  H    0.000742  -0.000010   0.000011   0.000419   0.000004  -0.000035
              19         20         21         22         23         24
     1  C    0.000051  -0.000992   0.002122   0.000006  -0.000000   0.000000
     2  C    0.005251  -0.005163   0.000618   0.000008   0.000000  -0.000000
     3  C   -0.035099  -0.038572  -0.003625   0.004524   0.000063   0.000063
     4  C    0.367929   0.362153  -0.041828  -0.034000   0.000192   0.000611
     5  C   -0.042869  -0.032553   0.363032   0.359193   0.003067  -0.005125
     6  C   -0.003469   0.004730  -0.034732  -0.031920  -0.022509  -0.022884
     7  C    0.004503   0.000084   0.006930  -0.006545   0.371714   0.370135
     8  C   -0.000204  -0.000212  -0.006460  -0.002121  -0.019832  -0.019525
     9  C   -0.001242   0.000369  -0.005002   0.004841  -0.004079   0.001871
    10  C   -0.000745   0.004891   0.000400   0.000181   0.000243   0.000173
    11  C   -0.000060   0.000008  -0.000180  -0.000114   0.003559   0.000095
    12  C    0.000066  -0.000003   0.002112  -0.000011   0.000047  -0.000117
    13  H   -0.000022   0.000216   0.001548   0.000042   0.000000  -0.000000
    14  H    0.000003  -0.000093   0.000125  -0.000004  -0.000000  -0.000000
    15  H   -0.000074   0.001700   0.002484   0.000141  -0.000000  -0.000000
    16  H   -0.000190   0.000073  -0.000053   0.000005   0.000000   0.000000
    17  H   -0.000147   0.003376   0.000047   0.000002   0.000000   0.000000
    18  H   -0.008676  -0.001293  -0.000102  -0.000174  -0.000001  -0.000002
    19  H    0.619566  -0.037517   0.006297  -0.006443  -0.000232   0.000666
    20  H   -0.037517   0.618107  -0.004206  -0.001885   0.000002  -0.000082
    21  H    0.006297  -0.004206   0.604591  -0.038358  -0.000158   0.000063
    22  H   -0.006443  -0.001885  -0.038358   0.624160   0.000004   0.003278
    23  H   -0.000232   0.000002  -0.000158   0.000004   0.554972  -0.033201
    24  H    0.000666  -0.000082   0.000063   0.003278  -0.033201   0.564833
    25  H    0.000010  -0.000004   0.001354   0.002915   0.002248  -0.006903
    26  H    0.000002   0.000003   0.000233  -0.000071  -0.006775   0.002119
    27  H   -0.000124  -0.000143  -0.000005   0.000014  -0.000050   0.000003
    28  H    0.003172  -0.000141   0.000110  -0.000022   0.000396  -0.000185
    29  H    0.000000  -0.000000  -0.000004  -0.000003   0.001174  -0.000031
    30  H    0.000000  -0.000000   0.000002   0.000002  -0.000214   0.000001
    31  H   -0.000001  -0.000000   0.000308  -0.000044   0.000031   0.000003
    32  H   -0.000002  -0.000001  -0.000175   0.000003   0.000002   0.000002
              25         26         27         28         29         30
     1  C   -0.000001  -0.000001   0.000010  -0.000110  -0.000002  -0.000006
     2  C    0.000000   0.000000  -0.008962   0.005835   0.000002  -0.000002
     3  C   -0.000012  -0.000013  -0.034214  -0.039190  -0.000115   0.000158
     4  C    0.000195  -0.000115   0.005006  -0.001541  -0.000010  -0.000003
     5  C   -0.006730   0.002190   0.000132  -0.000673   0.000099  -0.000082
     6  C   -0.019280  -0.019249   0.004440  -0.004068  -0.006789   0.001815
     7  C   -0.020833  -0.018608   0.000004   0.003580   0.000451   0.000264
     8  C    0.371359   0.366644  -0.000122  -0.000202   0.001483  -0.000009
     9  C    0.001862  -0.006823  -0.032414  -0.038950  -0.018355  -0.020192
    10  C   -0.000073   0.000099   0.358181   0.357469   0.001986  -0.006282
    11  C   -0.000020   0.001415  -0.001168  -0.009733   0.365679   0.370722
    12  C    0.000224   0.000469  -0.006551   0.007875  -0.017903  -0.019884
    13  H    0.000000   0.000001  -0.000039  -0.000023   0.000005   0.000015
    14  H    0.000000  -0.000000  -0.000042   0.000005   0.000000   0.000000
    15  H    0.000000   0.000000   0.000016   0.000001   0.000000  -0.000000
    16  H    0.000000   0.000000   0.007147   0.000108   0.000000  -0.000002
    17  H    0.000000   0.000000   0.000167  -0.000251  -0.000000  -0.000000
    18  H   -0.000000  -0.000000  -0.000476  -0.009045   0.000003  -0.000006
    19  H    0.000010   0.000002  -0.000124   0.003172   0.000000   0.000000
    20  H   -0.000004   0.000003  -0.000143  -0.000141  -0.000000  -0.000000
    21  H    0.001354   0.000233  -0.000005   0.000110  -0.000004   0.000002
    22  H    0.002915  -0.000071   0.000014  -0.000022  -0.000003   0.000002
    23  H    0.002248  -0.006775  -0.000050   0.000396   0.001174  -0.000214
    24  H   -0.006903   0.002119   0.000003  -0.000185  -0.000031   0.000001
    25  H    0.560873  -0.033595   0.000002   0.000004  -0.000044  -0.000000
    26  H   -0.033595   0.559638  -0.000002   0.000000   0.005171  -0.000044
    27  H    0.000002  -0.000002   0.617983  -0.038734  -0.000095   0.002825
    28  H    0.000004   0.000000  -0.038734   0.630781   0.000358   0.001790
    29  H   -0.000044   0.005171  -0.000095   0.000358   0.558233  -0.033333
    30  H   -0.000000  -0.000044   0.002825   0.001790  -0.033333   0.560932
    31  H   -0.000185   0.001045   0.000020  -0.000176  -0.006903   0.002244
    32  H    0.000000  -0.000030   0.003442  -0.000030   0.002144  -0.007149
              31         32
     1  C   -0.000070  -0.000337
     2  C   -0.000079   0.000149
     3  C    0.000125   0.000328
     4  C    0.000036   0.000055
     5  C    0.000237   0.000152
     6  C   -0.004063   0.001933
     7  C    0.000016  -0.000120
     8  C    0.003352   0.000075
     9  C   -0.022341  -0.022164
    10  C    0.003211  -0.005050
    11  C   -0.019826  -0.019201
    12  C    0.370103   0.368930
    13  H    0.000485   0.000742
    14  H   -0.000011  -0.000010
    15  H   -0.000005   0.000011
    16  H   -0.000002   0.000419
    17  H    0.000000   0.000004
    18  H    0.000002  -0.000035
    19  H   -0.000001  -0.000002
    20  H   -0.000000  -0.000001
    21  H    0.000308  -0.000175
    22  H   -0.000044   0.000003
    23  H    0.000031   0.000002
    24  H    0.000003   0.000002
    25  H   -0.000185   0.000000
    26  H    0.001045  -0.000030
    27  H    0.000020   0.003442
    28  H   -0.000176  -0.000030
    29  H   -0.006903   0.002144
    30  H    0.002244  -0.007149
    31  H    0.556786  -0.033433
    32  H   -0.033433   0.563161
 Mulliken charges:
               1
     1  C   -0.454763
     2  C   -0.256718
     3  C   -0.071882
     4  C   -0.272811
     5  C   -0.287138
     6  C    0.110652
     7  C   -0.323655
     8  C   -0.350421
     9  C    0.115844
    10  C   -0.292213
    11  C   -0.355918
    12  C   -0.320466
    13  H    0.162697
    14  H    0.134925
    15  H    0.144037
    16  H    0.124569
    17  H    0.126553
    18  H    0.114741
    19  H    0.129600
    20  H    0.127148
    21  H    0.142512
    22  H    0.122397
    23  H    0.149336
    24  H    0.144142
    25  H    0.146634
    26  H    0.146297
    27  H    0.123753
    28  H    0.131589
    29  H    0.146800
    30  H    0.146441
    31  H    0.149136
    32  H    0.146183
 Sum of Mulliken charges =  -0.00000
 Mulliken charges with hydrogens summed into heavy atoms:
               1
     1  C   -0.013104
     2  C   -0.005596
     3  C    0.042859
     4  C   -0.016063
     5  C   -0.022229
     6  C    0.110652
     7  C   -0.030177
     8  C   -0.057490
     9  C    0.115844
    10  C   -0.036871
    11  C   -0.062677
    12  C   -0.025147
 Electronic spatial extent (au):  <R**2>=           2057.0750
 Charge=             -0.0000 electrons
 Dipole moment (field-independent basis, Debye):
    X=              0.0916    Y=             -0.0711    Z=             -0.1030  Tot=              0.1551
 Quadrupole moment (field-independent basis, Debye-Ang):
   XX=            -76.7722   YY=            -75.1522   ZZ=            -76.3736
   XY=              0.1769   XZ=             -0.4958   YZ=             -0.8129
 Traceless Quadrupole moment (field-independent basis, Debye-Ang):
   XX=             -0.6729   YY=              0.9472   ZZ=             -0.2743
   XY=              0.1769   XZ=             -0.4958   YZ=             -0.8129
 Octapole moment (field-independent basis, Debye-Ang**2):
  XXX=              2.1223  YYY=             -4.3379  ZZZ=             -0.4464  XYY=              1.2812
  XXY=              2.6586  XXZ=              0.5516  XZZ=             -2.2425  YZZ=              0.0541
  YYZ=             -1.4383  XYZ=              0.3372
 Hexadecapole moment (field-independent basis, Debye-Ang**3):
 XXXX=          -1563.8942 YYYY=           -834.7394 ZZZZ=           -465.4918 XXXY=            -17.9746
 XXXZ=              0.1572 YYYX=             17.1557 YYYZ=            -11.8692 ZZZX=             -4.6027
 ZZZY=              0.6156 XXYY=           -392.1440 XXZZ=           -332.2533 YYZZ=           -212.5499
 XXYZ=              0.1112 YYXZ=              2.0619 ZZXY=              0.9642
 N-N= 7.679302700477D+02 E-N=-2.620388941702D+03  KE= 4.646762833479D+02
 Calling FoFJK, ICntrl=      2127 FMM=F ISym2X=0 I1Cent= 0 IOpClX= 0 NMat=1 NMatS=1 NMatT=0.
 ***** Axes restored to original set *****
 -------------------------------------------------------------------
 Center     Atomic                   Forces (Hartrees/Bohr)
 Number     Number              X              Y              Z
 -------------------------------------------------------------------
      1        6          -0.001718949   -0.004151518   -0.004901672
      2        6           0.002734097   -0.002143958    0.002370938
      3        6          -0.006604206   -0.005293499    0.011710548
      4        6           0.001051151    0.000379430    0.002041624
      5        6          -0.000826450   -0.003172352    0.000593790
      6        6          -0.007471125    0.006183799   -0.003576676
      7        6          -0.003282342   -0.000521888    0.005118993
      8        6          -0.007549025   -0.000820758    0.000225860
      9        6           0.001189997    0.008423904   -0.008320722
     10        6           0.009333566    0.002623023    0.000842669
     11        6           0.007270492    0.001864004   -0.000951198
     12        6           0.004370525   -0.004975921   -0.002368618
     13        1           0.000724072    0.001756121   -0.002113637
     14        1          -0.000208603   -0.001144269   -0.000744024
     15        1           0.000895673    0.001223606   -0.001785426
     16        1          -0.000478778    0.002219803    0.001473950
     17        1           0.000159823    0.000148009    0.001306582
     18        1           0.000360259    0.000247570   -0.000391681
     19        1           0.000260335    0.000362108   -0.000346116
     20        1          -0.000594215   -0.001470820    0.000961591
     21        1          -0.001368655   -0.001849573   -0.000153760
     22        1          -0.000558950    0.002719604   -0.001072330
     23        1          -0.001969555    0.000944841    0.000504208
     24        1           0.002039628   -0.001273928    0.001574090
     25        1           0.000274535   -0.003653936   -0.000311913
     26        1          -0.002710958    0.002098736   -0.001073191
     27        1           0.000186817   -0.000395288   -0.002355155
     28        1           0.001020881    0.000352596    0.000936648
     29        1           0.001983716    0.002154143   -0.002082114
     30        1           0.000707784   -0.000302594    0.003524148
     31        1           0.001253858    0.000170727   -0.001967475
     32        1          -0.000475399   -0.002701721    0.001330068
 -------------------------------------------------------------------
 Cartesian Forces:  Max     0.011710548 RMS     0.003167318

 GradGradGradGradGradGradGradGradGradGradGradGradGradGradGradGradGradGrad
 Berny optimization.
 FormGI is forming the generalized inverse of G from B-inverse, IUseBI=4.
 Internal  Forces:  Max     0.023069381 RMS     0.002690176
 Search for a local minimum.
 Step number   1 out of a maximum of  192
 All quantities printed in internal units (Hartrees-Bohrs-Radians)
 Mixed Optimization -- RFO/linear search
 Second derivative matrix not updated -- first step.
 ITU=  0
     Eigenvalues ---    0.00230   0.00416   0.00530   0.00556   0.00632
     Eigenvalues ---    0.01356   0.01663   0.02093   0.02098   0.02665
     Eigenvalues ---    0.02755   0.03037   0.03067   0.03069   0.03085
     Eigenvalues ---    0.03113   0.03558   0.03569   0.03632   0.03775
     Eigenvalues ---    0.03881   0.03924   0.04630   0.04729   0.04746
     Eigenvalues ---    0.04919   0.05292   0.05429   0.05510   0.05794
     Eigenvalues ---    0.07601   0.08213   0.08383   0.08700   0.08831
     Eigenvalues ---    0.09272   0.10230   0.10330   0.10337   0.10460
     Eigenvalues ---    0.10697   0.12049   0.12860   0.13021   0.15929
     Eigenvalues ---    0.16000   0.16000   0.16000   0.16000   0.16000
     Eigenvalues ---    0.16332   0.17388   0.17534   0.17724   0.18035
     Eigenvalues ---    0.19427   0.21990   0.22867   0.26569   0.26706
     Eigenvalues ---    0.26850   0.27610   0.28100   0.28305   0.28473
     Eigenvalues ---    0.30208   0.30277   0.30579   0.31161   0.31189
     Eigenvalues ---    0.33564   0.33808   0.33826   0.33856   0.33953
     Eigenvalues ---    0.33982   0.34006   0.34090   0.34190   0.34385
     Eigenvalues ---    0.34428   0.34810   0.35413   0.35420   0.35488
     Eigenvalues ---    0.35490   0.35517   0.35523   0.35672   0.35675
 RFO step:  Lambda=-8.09476468D-03 EMin= 2.30000000D-03
 Linear search not attempted -- first point.
 Iteration  1 RMS(Cart)=  0.06273764 RMS(Int)=  0.00099993
 Iteration  2 RMS(Cart)=  0.00163584 RMS(Int)=  0.00019815
 Iteration  3 RMS(Cart)=  0.00000151 RMS(Int)=  0.00019814
 Iteration  4 RMS(Cart)=  0.00000000 RMS(Int)=  0.00019814
 Variable       Old X    -DE/DX   Delta X   Delta X   Delta X     New X
                                 (Linear)    (Quad)   (Total)
    R1        2.86824   0.00970   0.00000   0.03089   0.03089   2.89913
    R2        2.05984   0.00240   0.00000   0.00675   0.00675   2.06659
    R3        2.07010   0.00116   0.00000   0.00331   0.00331   2.07341
    R4        2.06685   0.00087   0.00000   0.00247   0.00247   2.06932
    R5        2.91920   0.00198   0.00000   0.00686   0.00686   2.92606
    R6        2.07320   0.00092   0.00000   0.00264   0.00264   2.07584
    R7        2.07573   0.00073   0.00000   0.00210   0.00210   2.07784
    R8        2.90642   0.00014   0.00000   0.00475   0.00497   2.91139
    R9        2.91027   0.00324   0.00000   0.01159   0.01179   2.92207
   R10        2.08072  -0.00040   0.00000  -0.00115  -0.00115   2.07957
   R11        2.88868   0.00513   0.00000   0.01704   0.01713   2.90581
   R12        2.07624   0.00013   0.00000   0.00037   0.00037   2.07661
   R13        2.07178   0.00111   0.00000   0.00319   0.00319   2.07497
   R14        2.86217   0.00359   0.00000   0.01112   0.01091   2.87308
   R15        2.06613   0.00174   0.00000   0.00494   0.00494   2.07107
   R16        2.07409  -0.00002   0.00000  -0.00005  -0.00005   2.07404
   R17        2.87228  -0.00284   0.00000  -0.01488  -0.01464   2.85764
   R18        2.86986  -0.00559   0.00000  -0.02484  -0.02471   2.84516
   R19        2.92823  -0.02307   0.00000  -0.08555  -0.08576   2.84247
   R20        2.83206   0.00373   0.00000   0.02332   0.02294   2.85500
   R21        2.04890   0.00195   0.00000   0.00537   0.00537   2.05428
   R22        2.04835   0.00252   0.00000   0.00694   0.00694   2.05529
   R23        2.04999   0.00151   0.00000   0.00417   0.00417   2.05416
   R24        2.04597   0.00346   0.00000   0.00948   0.00948   2.05546
   R25        2.86657   0.00403   0.00000   0.01256   0.01247   2.87905
   R26        2.87814  -0.00637   0.00000  -0.02879  -0.02857   2.84957
   R27        2.87060  -0.00216   0.00000  -0.01315  -0.01282   2.85778
   R28        2.07360  -0.00052   0.00000  -0.00150  -0.00150   2.07210
   R29        2.07656   0.00113   0.00000   0.00326   0.00326   2.07983
   R30        2.82593   0.00453   0.00000   0.02697   0.02642   2.85235
   R31        2.04592   0.00342   0.00000   0.00937   0.00937   2.05530
   R32        2.05010   0.00159   0.00000   0.00438   0.00438   2.05448
   R33        2.04887   0.00224   0.00000   0.00617   0.00617   2.05504
   R34        2.04844   0.00232   0.00000   0.00638   0.00638   2.05483
    A1        1.96060   0.00021   0.00000  -0.00119  -0.00121   1.95940
    A2        1.91390   0.00108   0.00000   0.01083   0.01077   1.92467
    A3        1.94214   0.00112   0.00000   0.00458   0.00453   1.94668
    A4        1.87467  -0.00022   0.00000   0.00246   0.00243   1.87710
    A5        1.90330  -0.00178   0.00000  -0.01840  -0.01842   1.88489
    A6        1.86560  -0.00049   0.00000   0.00178   0.00170   1.86730
    A7        2.06112   0.00034   0.00000   0.00126   0.00117   2.06229
    A8        1.89783   0.00086   0.00000   0.00184   0.00172   1.89954
    A9        1.86613   0.00123   0.00000   0.02030   0.02023   1.88636
   A10        1.90515  -0.00191   0.00000  -0.02396  -0.02400   1.88116
   A11        1.87949  -0.00061   0.00000   0.00038   0.00026   1.87976
   A12        1.84167   0.00014   0.00000   0.00131   0.00121   1.84288
   A13        2.00993  -0.00008   0.00000  -0.01499  -0.01584   1.99409
   A14        1.98895   0.00284   0.00000   0.00043  -0.00084   1.98811
   A15        1.80463   0.00002   0.00000   0.02646   0.02647   1.83109
   A16        1.96313  -0.00461   0.00000  -0.03374  -0.03372   1.92941
   A17        1.84571   0.00123   0.00000   0.01094   0.01136   1.85707
   A18        1.82700   0.00114   0.00000   0.02326   0.02323   1.85022
   A19        2.00482  -0.00253   0.00000  -0.00739  -0.00728   1.99754
   A20        1.87890   0.00074   0.00000   0.00551   0.00555   1.88445
   A21        1.92489   0.00010   0.00000  -0.00904  -0.00911   1.91578
   A22        1.87961   0.00047   0.00000   0.00128   0.00125   1.88086
   A23        1.91658   0.00161   0.00000   0.00742   0.00734   1.92392
   A24        1.85185  -0.00024   0.00000   0.00328   0.00329   1.85514
   A25        1.94343   0.00132   0.00000   0.00903   0.00868   1.95211
   A26        1.94191  -0.00074   0.00000  -0.00924  -0.00916   1.93275
   A27        1.89347   0.00073   0.00000   0.01234   0.01255   1.90602
   A28        1.89808  -0.00002   0.00000   0.00188   0.00205   1.90013
   A29        1.93737  -0.00214   0.00000  -0.02270  -0.02266   1.91471
   A30        1.84755   0.00078   0.00000   0.00814   0.00807   1.85562
   A31        2.04078   0.00172   0.00000   0.00968   0.00928   2.05006
   A32        2.01739   0.00447   0.00000   0.03340   0.03344   2.05083
   A33        1.96781   0.00138   0.00000  -0.00576  -0.00579   1.96202
   A34        2.08939  -0.00375   0.00000  -0.00973  -0.00949   2.07990
   A35        2.14494  -0.00655   0.00000  -0.03408  -0.03407   2.11087
   A36        2.06218   0.00132   0.00000  -0.00096  -0.00088   2.06130
   A37        2.07194  -0.00128   0.00000  -0.01329  -0.01331   2.05863
   A38        2.05764  -0.00280   0.00000  -0.00516  -0.00523   2.05241
   A39        2.06142   0.00388   0.00000   0.01623   0.01607   2.07749
   A40        1.98372   0.00024   0.00000   0.00663   0.00647   1.99019
   A41        2.07009  -0.00296   0.00000  -0.02753  -0.02752   2.04257
   A42        2.08207   0.00171   0.00000   0.00227   0.00229   2.08435
   A43        2.05692   0.00068   0.00000   0.01850   0.01856   2.07548
   A44        2.06254  -0.00029   0.00000  -0.00267  -0.00299   2.05955
   A45        1.97160   0.00084   0.00000   0.00891   0.00850   1.98009
   A46        1.96947   0.00127   0.00000  -0.00860  -0.00870   1.96077
   A47        2.12475  -0.00624   0.00000  -0.02814  -0.02811   2.09664
   A48        2.10728  -0.00429   0.00000  -0.01448  -0.01422   2.09306
   A49        2.00228   0.00420   0.00000   0.03230   0.03233   2.03461
   A50        2.05751   0.00222   0.00000   0.01364   0.01322   2.07073
   A51        1.99525   0.00252   0.00000   0.01370   0.01337   2.00862
   A52        1.92043  -0.00118   0.00000  -0.01379  -0.01393   1.90650
   A53        1.88483  -0.00016   0.00000   0.00705   0.00688   1.89171
   A54        1.94372  -0.00227   0.00000  -0.02975  -0.02964   1.91408
   A55        1.86636   0.00008   0.00000   0.01473   0.01451   1.88087
   A56        1.84528   0.00103   0.00000   0.01026   0.01044   1.85573
   A57        2.08482   0.00151   0.00000  -0.00133  -0.00128   2.08354
   A58        2.07051  -0.00306   0.00000  -0.02770  -0.02781   2.04270
   A59        2.06050  -0.00060   0.00000   0.00076   0.00041   2.06092
   A60        2.05663   0.00096   0.00000   0.01831   0.01831   2.07493
   A61        1.97140   0.00095   0.00000   0.00927   0.00870   1.98010
   A62        2.05952   0.00178   0.00000   0.00229   0.00233   2.06185
   A63        2.07488  -0.00137   0.00000  -0.01653  -0.01645   2.05843
   A64        2.05902  -0.00231   0.00000  -0.00546  -0.00561   2.05341
   A65        2.05454   0.00400   0.00000   0.02157   0.02140   2.07595
   A66        1.98495  -0.00011   0.00000   0.00474   0.00451   1.98946
    D1       -0.97985   0.00115   0.00000   0.01403   0.01408  -0.96577
    D2        1.20219  -0.00046   0.00000  -0.01642  -0.01645   1.18574
    D3       -3.10028   0.00073   0.00000  -0.00383  -0.00384  -3.10413
    D4       -3.06304   0.00056   0.00000   0.00442   0.00449  -3.05855
    D5       -0.88100  -0.00104   0.00000  -0.02602  -0.02604  -0.90705
    D6        1.09971   0.00015   0.00000  -0.01344  -0.01344   1.08627
    D7        1.15982  -0.00019   0.00000  -0.00741  -0.00738   1.15244
    D8       -2.94133  -0.00180   0.00000  -0.03786  -0.03791  -2.97924
    D9       -0.96062  -0.00061   0.00000  -0.02527  -0.02530  -0.98592
   D10       -0.81874   0.00077   0.00000  -0.03786  -0.03785  -0.85659
   D11        1.48758  -0.00332   0.00000  -0.10360  -0.10357   1.38401
   D12       -2.82320  -0.00069   0.00000  -0.06045  -0.06036  -2.88356
   D13       -2.99717   0.00101   0.00000  -0.02005  -0.02011  -3.01728
   D14       -0.69085  -0.00307   0.00000  -0.08579  -0.08583  -0.77668
   D15        1.28155  -0.00044   0.00000  -0.04264  -0.04261   1.23894
   D16        1.29484   0.00214   0.00000  -0.00969  -0.00975   1.28510
   D17       -2.68202  -0.00195   0.00000  -0.07543  -0.07547  -2.75749
   D18       -0.70962   0.00068   0.00000  -0.03228  -0.03225  -0.74187
   D19        1.49362  -0.00046   0.00000  -0.04832  -0.04806   1.44555
   D20       -2.69628  -0.00094   0.00000  -0.04742  -0.04714  -2.74341
   D21       -0.68323  -0.00075   0.00000  -0.04520  -0.04496  -0.72819
   D22       -0.82481   0.00011   0.00000   0.00057   0.00035  -0.82445
   D23        1.26849  -0.00037   0.00000   0.00148   0.00128   1.26977
   D24       -3.00166  -0.00018   0.00000   0.00370   0.00346  -2.99820
   D25       -2.80892   0.00030   0.00000  -0.01684  -0.01688  -2.82580
   D26       -0.71563  -0.00018   0.00000  -0.01594  -0.01595  -0.73158
   D27        1.29741   0.00001   0.00000  -0.01371  -0.01377   1.28364
   D28       -1.53456   0.00253   0.00000   0.08161   0.08159  -1.45297
   D29        0.66772   0.00046   0.00000   0.04084   0.04080   0.70852
   D30        2.67391   0.00098   0.00000   0.04965   0.04957   2.72348
   D31        0.79409   0.00059   0.00000   0.02607   0.02611   0.82020
   D32        2.99638  -0.00147   0.00000  -0.01471  -0.01469   2.98169
   D33       -1.28062  -0.00096   0.00000  -0.00589  -0.00591  -1.28653
   D34        2.78964   0.00052   0.00000   0.03630   0.03622   2.82586
   D35       -1.29126  -0.00155   0.00000  -0.00447  -0.00458  -1.29584
   D36        0.71493  -0.00103   0.00000   0.00434   0.00420   0.71912
   D37        0.89784   0.00019   0.00000   0.00258   0.00268   0.90051
   D38       -1.22273  -0.00019   0.00000   0.00033   0.00045  -1.22228
   D39        3.03488  -0.00115   0.00000  -0.01169  -0.01162   3.02327
   D40       -1.19506   0.00052   0.00000  -0.00066  -0.00064  -1.19570
   D41        2.96756   0.00014   0.00000  -0.00291  -0.00287   2.96469
   D42        0.94198  -0.00082   0.00000  -0.01493  -0.01493   0.92705
   D43        3.07905  -0.00030   0.00000  -0.00912  -0.00911   3.06994
   D44        0.95848  -0.00067   0.00000  -0.01137  -0.01134   0.94714
   D45       -1.06709  -0.00164   0.00000  -0.02339  -0.02340  -1.09049
   D46        1.59872  -0.00330   0.00000  -0.02626  -0.02643   1.57229
   D47        2.76308   0.00243   0.00000   0.00822   0.00839   2.77148
   D48       -0.92618  -0.00095   0.00000  -0.01399  -0.01399  -0.94018
   D49       -2.53858  -0.00338   0.00000  -0.03066  -0.03084  -2.56942
   D50       -1.37422   0.00235   0.00000   0.00381   0.00398  -1.37023
   D51        1.21970  -0.00103   0.00000  -0.01840  -0.01840   1.20130
   D52       -0.51282  -0.00366   0.00000  -0.03253  -0.03262  -0.54545
   D53        0.65154   0.00208   0.00000   0.00194   0.00220   0.65374
   D54       -3.03772  -0.00130   0.00000  -0.02027  -0.02019  -3.05791
   D55       -2.56670   0.00091   0.00000   0.03211   0.03222  -2.53448
   D56       -0.04815   0.00147   0.00000   0.02162   0.02175  -0.02639
   D57       -0.08635   0.00044   0.00000   0.02109   0.02091  -0.06544
   D58        2.43220   0.00100   0.00000   0.01060   0.01044   2.44265
   D59        0.00442   0.00085   0.00000   0.03071   0.03037   0.03479
   D60        2.52888   0.00042   0.00000   0.00530   0.00517   2.53406
   D61       -2.52835   0.00136   0.00000   0.04241   0.04236  -2.48599
   D62       -0.00389   0.00093   0.00000   0.01700   0.01717   0.01328
   D63        0.91375  -0.00086   0.00000   0.02159   0.02123   0.93498
   D64       -2.88100  -0.00023   0.00000   0.02744   0.02717  -2.85383
   D65       -1.65612  -0.00035   0.00000   0.03320   0.03294  -1.62317
   D66       -1.59220  -0.00064   0.00000   0.02663   0.02656  -1.56564
   D67        0.89623  -0.00001   0.00000   0.03248   0.03250   0.92873
   D68        2.12112  -0.00012   0.00000   0.03824   0.03828   2.15939
   D69       -2.82140  -0.00030   0.00000   0.02268   0.02266  -2.79873
   D70       -0.33297   0.00033   0.00000   0.02854   0.02860  -0.30436
   D71        0.89192   0.00021   0.00000   0.03430   0.03438   0.92630
   D72        2.49380   0.00224   0.00000   0.04623   0.04647   2.54026
   D73        0.02251   0.00003   0.00000   0.00508   0.00502   0.02753
   D74       -0.00019   0.00005   0.00000   0.01578   0.01591   0.01571
   D75       -2.47148  -0.00216   0.00000  -0.02536  -0.02554  -2.49702
   D76       -0.84268  -0.00200   0.00000  -0.04764  -0.04784  -0.89052
   D77       -3.03277  -0.00053   0.00000  -0.01509  -0.01523  -3.04800
   D78        1.24245  -0.00062   0.00000  -0.02034  -0.02032   1.22213
   D79        2.90416   0.00144   0.00000  -0.03061  -0.03053   2.87363
   D80        0.71407   0.00292   0.00000   0.00195   0.00209   0.71615
   D81       -1.29390   0.00282   0.00000  -0.00330  -0.00301  -1.29690
   D82        1.74482  -0.00480   0.00000  -0.06860  -0.06900   1.67583
   D83       -0.44527  -0.00333   0.00000  -0.03605  -0.03638  -0.48166
   D84       -2.45324  -0.00342   0.00000  -0.04130  -0.04147  -2.49471
   D85        0.02951   0.00037   0.00000   0.00274   0.00304   0.03255
   D86       -2.50007   0.00111   0.00000   0.03441   0.03444  -2.46564
   D87        2.50675  -0.00008   0.00000  -0.00575  -0.00592   2.50083
   D88       -0.02284   0.00066   0.00000   0.02592   0.02548   0.00264
   D89       -0.04802  -0.00017   0.00000   0.00805   0.00788  -0.04014
   D90        2.47350   0.00030   0.00000  -0.00631  -0.00644   2.46707
   D91       -2.59019   0.00081   0.00000   0.02779   0.02791  -2.56227
   D92       -0.06867   0.00128   0.00000   0.01343   0.01360  -0.05507
   D93        0.02819  -0.00006   0.00000  -0.00326  -0.00336   0.02483
   D94       -2.45955  -0.00248   0.00000  -0.03751  -0.03778  -2.49733
   D95        2.49555   0.00228   0.00000   0.04313   0.04339   2.53895
   D96        0.00782  -0.00014   0.00000   0.00889   0.00897   0.01679
         Item               Value     Threshold  Converged?
 Maximum Force            0.023069     0.000450     NO 
 RMS     Force            0.002690     0.000300     NO 
 Maximum Displacement     0.256591     0.001800     NO 
 RMS     Displacement     0.062912     0.001200     NO 
 Predicted change in Energy=-4.556074D-03
 GradGradGradGradGradGradGradGradGradGradGradGradGradGradGradGradGradGrad

                          Input orientation:                          
 ---------------------------------------------------------------------
 Center     Atomic      Atomic             Coordinates (Angstroms)
 Number     Number       Type             X           Y           Z
[...]
   215    C   10  pz     Ryd( 5p)     0.00003       3.01356
   216    C   10  dxy    Ryd( 3d)     0.00041       2.41106
   217    C   10  dxz    Ryd( 3d)     0.00049       2.49625
   218    C   10  dyz    Ryd( 3d)     0.00029       2.17867
   219    C   10  dx2y2  Ryd( 3d)     0.00031       2.17957
   220    C   10  dz2    Ryd( 3d)     0.00033       2.21622
 
   221    C   11  S      Cor( 1S)     0.99958      -9.92716
   222    C   11  S      Val( 2S)     0.49491      -0.10929
   223    C   11  S      Ryd( 3S)     0.00081       3.07540
   224    C   11  S      Ryd( 4S)     0.00035       3.47338
   225    C   11  S      Ryd( 5S)     0.00010       5.34811
   226    C   11  px     Val( 2p)     0.55854       0.02809
   227    C   11  px     Ryd( 3p)     0.00138       1.41602
   228    C   11  px     Ryd( 5p)     0.00019       4.46654
   229    C   11  px     Ryd( 4p)     0.00003       3.33739
   230    C   11  py     Val( 2p)     0.56406       0.01992
   231    C   11  py     Ryd( 3p)     0.00104       1.33955
   232    C   11  py     Ryd( 5p)     0.00011       4.41264
   233    C   11  py     Ryd( 4p)     0.00003       2.99741
   234    C   11  pz     Val( 2p)     0.56902       0.01850
   235    C   11  pz     Ryd( 3p)     0.00127       0.96063
   236    C   11  pz     Ryd( 4p)     0.00029       2.31274
   237    C   11  pz     Ryd( 5p)     0.00003       3.00128
   238    C   11  dxy    Ryd( 3d)     0.00059       1.85197
   239    C   11  dxz    Ryd( 3d)     0.00068       2.00933
   240    C   11  dyz    Ryd( 3d)     0.00069       1.80401
   241    C   11  dx2y2  Ryd( 3d)     0.00062       1.90770
   242    C   11  dz2    Ryd( 3d)     0.00042       1.81740
 
   243    C   12  S      Cor( 1S)     0.99958      -9.92701
   244    C   12  S      Val( 2S)     0.49888      -0.11263
   245    C   12  S      Ryd( 4S)     0.00067       2.52800
   246    C   12  S      Ryd( 3S)     0.00037       2.03010
   247    C   12  S      Ryd( 5S)     0.00013       9.27774
   248    C   12  px     Val( 2p)     0.57470       0.02087
   249    C   12  px     Ryd( 3p)     0.00115       0.98037
   250    C   12  px     Ryd( 4p)     0.00017       1.78169
   251    C   12  px     Ryd( 5p)     0.00004       3.17413
   252    C   12  py     Val( 2p)     0.56679       0.01947
   253    C   12  py     Ryd( 3p)     0.00104       1.31658
   254    C   12  py     Ryd( 5p)     0.00019       3.11078
   255    C   12  py     Ryd( 4p)     0.00003       2.96434
   256    C   12  pz     Val( 2p)     0.54804       0.02755
   257    C   12  pz     Ryd( 3p)     0.00150       1.50482
   258    C   12  pz     Ryd( 5p)     0.00023       4.35521
   259    C   12  pz     Ryd( 4p)     0.00003       3.29790
   260    C   12  dxy    Ryd( 3d)     0.00073       1.83141
   261    C   12  dxz    Ryd( 3d)     0.00074       2.03128
   262    C   12  dyz    Ryd( 3d)     0.00059       1.85340
   263    C   12  dx2y2  Ryd( 3d)     0.00030       1.78748
   264    C   12  dz2    Ryd( 3d)     0.00072       1.90104
 
   265    H   13  S      Val( 1S)     0.40063       0.15653
   266    H   13  S      Ryd( 2S)     0.00078       0.59636
   267    H   13  S      Ryd( 4S)     0.00031       2.05162
   268    H   13  S      Ryd( 3S)     0.00001       0.71670
   269    H   13  px     Ryd( 2p)     0.00012       2.45940
   270    H   13  py     Ryd( 2p)     0.00009       2.27724
   271    H   13  pz     Ryd( 2p)     0.00007       1.95905
 
   272    H   14  S      Val( 1S)     0.40161       0.14602
   273    H   14  S      Ryd( 2S)     0.00041       0.43985
   274    H   14  S      Ryd( 4S)     0.00028       1.63001
   275    H   14  S      Ryd( 3S)     0.00001       1.11488
   276    H   14  px     Ryd( 2p)     0.00011       2.51149
   277    H   14  py     Ryd( 2p)     0.00008       2.08227
   278    H   14  pz     Ryd( 2p)     0.00008       1.97180
 
   279    H   15  S      Val( 1S)     0.40437       0.14489
   280    H   15  S      Ryd( 2S)     0.00054       0.53515
   281    H   15  S      Ryd( 4S)     0.00028       1.85684
   282    H   15  S      Ryd( 3S)     0.00001       0.97956
   283    H   15  px     Ryd( 2p)     0.00008       1.95569
   284    H   15  py     Ryd( 2p)     0.00012       2.58136
   285    H   15  pz     Ryd( 2p)     0.00009       2.12702
 
   286    H   16  S      Val( 1S)     0.40435       0.15063
   287    H   16  S      Ryd( 2S)     0.00082       0.48105
   288    H   16  S      Ryd( 4S)     0.00039       1.88064
   289    H   16  S      Ryd( 3S)     0.00001       1.04061
   290    H   16  px     Ryd( 2p)     0.00008       2.02131
   291    H   16  py     Ryd( 2p)     0.00013       2.66736
   292    H   16  pz     Ryd( 2p)     0.00009       2.12626
 
   293    H   17  S      Val( 1S)     0.40223       0.15243
   294    H   17  S      Ryd( 2S)     0.00104       0.43413
   295    H   17  S      Ryd( 4S)     0.00039       1.80755
   296    H   17  S      Ryd( 3S)     0.00001       1.18770
   297    H   17  px     Ryd( 2p)     0.00014       2.57605
   298    H   17  py     Ryd( 2p)     0.00009       2.31453
   299    H   17  pz     Ryd( 2p)     0.00008       1.98628
 
   300    H   18  S      Val( 1S)     0.39748       0.16382
   301    H   18  S      Ryd( 2S)     0.00127       0.48205
   302    H   18  S      Ryd( 3S)     0.00069       1.36107
   303    H   18  S      Ryd( 4S)     0.00003       2.73251
   304    H   18  px     Ryd( 2p)     0.00008       2.28124
   305    H   18  py     Ryd( 2p)     0.00011       2.07844
   306    H   18  pz     Ryd( 2p)     0.00016       2.75255
 
   307    H   19  S      Val( 1S)     0.39992       0.15507
   308    H   19  S      Ryd( 2S)     0.00092       0.53403
   309    H   19  S      Ryd( 4S)     0.00041       1.97668
   310    H   19  S      Ryd( 3S)     0.00001       0.97832
   311    H   19  px     Ryd( 2p)     0.00008       2.13997
   312    H   19  py     Ryd( 2p)     0.00010       2.32731
   313    H   19  pz     Ryd( 2p)     0.00011       2.44507
 
   314    H   20  S      Val( 1S)     0.39865       0.15525
   315    H   20  S      Ryd( 2S)     0.00061       0.45857
   316    H   20  S      Ryd( 4S)     0.00034       1.74774
   317    H   20  S      Ryd( 3S)     0.00001       1.19881
   318    H   20  px     Ryd( 2p)     0.00010       2.46141
   319    H   20  py     Ryd( 2p)     0.00011       2.34213
   320    H   20  pz     Ryd( 2p)     0.00008       2.07321
 
   321    H   21  S      Val( 1S)     0.39969       0.15561
   322    H   21  S      Ryd( 2S)     0.00107       0.54442
   323    H   21  S      Ryd( 4S)     0.00033       2.09120
   324    H   21  S      Ryd( 3S)     0.00001       0.90803
   325    H   21  px     Ryd( 2p)     0.00010       2.21539
   326    H   21  py     Ryd( 2p)     0.00009       2.11286
   327    H   21  pz     Ryd( 2p)     0.00014       2.68695
 
   328    H   22  S      Val( 1S)     0.40020       0.14723
   329    H   22  S      Ryd( 2S)     0.00055       0.50860
   330    H   22  S      Ryd( 4S)     0.00043       1.62795
   331    H   22  S      Ryd( 3S)     0.00001       1.21046
   332    H   22  px     Ryd( 2p)     0.00008       2.12290
   333    H   22  py     Ryd( 2p)     0.00015       2.67028
   334    H   22  pz     Ryd( 2p)     0.00008       2.07340
 
   335    H   23  S      Val( 1S)     0.39606       0.14892
   336    H   23  S      Ryd( 2S)     0.00050       0.46737
   337    H   23  S      Ryd( 4S)     0.00029       1.71048
   338    H   23  S      Ryd( 3S)     0.00002       1.11869
   339    H   23  px     Ryd( 2p)     0.00013       2.16231
   340    H   23  py     Ryd( 2p)     0.00009       2.33802
   341    H   23  pz     Ryd( 2p)     0.00008       2.66084
 
   342    H   24  S      Val( 1S)     0.39681       0.14772
   343    H   24  S      Ryd( 2S)     0.00049       0.45860
   344    H   24  S      Ryd( 4S)     0.00032       1.73622
   345    H   24  S      Ryd( 3S)     0.00002       1.03744
   346    H   24  px     Ryd( 2p)     0.00013       1.97854
   347    H   24  py     Ryd( 2p)     0.00006       3.07193
   348    H   24  pz     Ryd( 2p)     0.00010       2.11940
 
   349    H   25  S      Val( 1S)     0.39746       0.14361
   350    H   25  S      Ryd( 2S)     0.00033       0.46890
   351    H   25  S      Ryd( 4S)     0.00033       1.62827
   352    H   25  S      Ryd( 3S)     0.00001       1.13737
   353    H   25  px     Ryd( 2p)     0.00012       2.03777
   354    H   25  py     Ryd( 2p)     0.00009       2.45167
   355    H   25  pz     Ryd( 2p)     0.00008       2.62243
 
   356    H   26  S      Val( 1S)     0.39878       0.14168
   357    H   26  S      Ryd( 2S)     0.00039       0.61847
   358    H   26  S      Ryd( 4S)     0.00036       1.54834
   359    H   26  S      Ryd( 3S)     0.00002       1.06942
   360    H   26  px     Ryd( 2p)     0.00011       2.31424
   361    H   26  py     Ryd( 2p)     0.00008       2.66629
   362    H   26  pz     Ryd( 2p)     0.00010       2.09874
 
   363    H   27  S      Val( 1S)     0.39839       0.15137
   364    H   27  S      Ryd( 2S)     0.00101       0.53877
   365    H   27  S      Ryd( 4S)     0.00042       1.70576
   366    H   27  S      Ryd( 3S)     0.00001       1.16907
   367    H   27  px     Ryd( 2p)     0.00009       2.14981
   368    H   27  py     Ryd( 2p)     0.00013       2.65969
   369    H   27  pz     Ryd( 2p)     0.00008       2.07435
 
   370    H   28  S      Val( 1S)     0.39763       0.15516
   371    H   28  S      Ryd( 2S)     0.00090       0.52311
   372    H   28  S      Ryd( 4S)     0.00038       1.89365
   373    H   28  S      Ryd( 3S)     0.00001       1.09482
   374    H   28  px     Ryd( 2p)     0.00010       2.18993
   375    H   28  py     Ryd( 2p)     0.00007       2.16980
   376    H   28  pz     Ryd( 2p)     0.00013       2.66297
 
   377    H   29  S      Val( 1S)     0.39887       0.14227
   378    H   29  S      Ryd( 2S)     0.00046       0.64425
   379    H   29  S      Ryd( 4S)     0.00035       1.62664
   380    H   29  S      Ryd( 3S)     0.00001       0.97573
   381    H   29  px     Ryd( 2p)     0.00006       3.03241
   382    H   29  py     Ryd( 2p)     0.00012       1.99578
   383    H   29  pz     Ryd( 2p)     0.00011       2.08028
 
   384    H   30  S      Val( 1S)     0.39634       0.14550
   385    H   30  S      Ryd( 2S)     0.00038       0.45433
   386    H   30  S      Ryd( 4S)     0.00032       1.65364
   387    H   30  S      Ryd( 3S)     0.00002       1.13706
   388    H   30  px     Ryd( 2p)     0.00009       2.12995
   389    H   30  py     Ryd( 2p)     0.00011       2.40670
   390    H   30  pz     Ryd( 2p)     0.00009       2.58405
 
   391    H   31  S      Val( 1S)     0.39666       0.14730
   392    H   31  S      Ryd( 2S)     0.00041       0.51595
   393    H   31  S      Ryd( 4S)     0.00028       1.80885
   394    H   31  S      Ryd( 3S)     0.00001       1.07159
   395    H   31  px     Ryd( 2p)     0.00010       2.17488
   396    H   31  py     Ryd( 2p)     0.00013       1.98595
   397    H   31  pz     Ryd( 2p)     0.00006       2.98498
 
   398    H   32  S      Val( 1S)     0.39536       0.14945
   399    H   32  S      Ryd( 2S)     0.00040       0.50137
   400    H   32  S      Ryd( 4S)     0.00030       1.80443
   401    H   32  S      Ryd( 3S)     0.00001       0.98925
   402    H   32  px     Ryd( 2p)     0.00009       2.65271
   403    H   32  py     Ryd( 2p)     0.00011       2.38563
   404    H   32  pz     Ryd( 2p)     0.00009       2.12032

 WARNING:  Population inversion found on atom  C    1
           Population inversion found on atom  C    2
           Population inversion found on atom  C    3
           Population inversion found on atom  C    4
           Population inversion found on atom  C    5
           Population inversion found on atom  C    6
           Population inversion found on atom  C    8
           Population inversion found on atom  C    9
           Population inversion found on atom  C   10
           Population inversion found on atom  C   11
           Population inversion found on atom  C   12
           Population inversion found on atom  H   13
           Population inversion found on atom  H   14
           Population inversion found on atom  H   15
           Population inversion found on atom  H   16
           Population inversion found on atom  H   17
           Population inversion found on atom  H   19
           Population inversion found on atom  H   20
           Population inversion found on atom  H   21
           Population inversion found on atom  H   22
           Population inversion found on atom  H   23
           Population inversion found on atom  H   24
           Population inversion found on atom  H   25
           Population inversion found on atom  H   26
           Population inversion found on atom  H   27
           Population inversion found on atom  H   28
           Population inversion found on atom  H   29
           Population inversion found on atom  H   30
           Population inversion found on atom  H   31
           Population inversion found on atom  H   32


 Summary of Natural Population Analysis:                  
                                                          
                                       Natural Population 
                Natural  -----------------------------------------------
    Atom  No    Charge         Core      Valence    Rydberg      Total
 -----------------------------------------------------------------------
      C    1   -0.28849      0.99965     2.28326    0.00559     3.28849
      C    2   -0.18461      0.99961     2.17599    0.00900     3.18461
      C    3   -0.10743      0.99958     2.09553    0.01232     3.10743
      C    4   -0.18804      0.99961     2.17865    0.00978     3.18804
      C    5   -0.18327      0.99958     2.17437    0.00932     3.18327
      C    6   -0.03861      0.99949     2.02523    0.01388     3.03861
      C    7   -0.19327      0.99958     2.18493    0.00876     3.19327
      C    8   -0.19558      0.99958     2.18753    0.00846     3.19558
      C    9   -0.04012      0.99949     2.02581    0.01481     3.04012
      C   10   -0.18105      0.99957     2.17048    0.01100     3.18105
      C   11   -0.19474      0.99958     2.18654    0.00862     3.19474
      C   12   -0.19661      0.99958     2.18841    0.00862     3.19661
      H   13    0.09799      0.00000     0.40063    0.00138     0.40201
      H   14    0.09742      0.00000     0.40161    0.00098     0.40258
      H   15    0.09452      0.00000     0.40437    0.00111     0.40548
      H   16    0.09413      0.00000     0.40435    0.00153     0.40587
      H   17    0.09601      0.00000     0.40223    0.00176     0.40399
      H   18    0.10018      0.00000     0.39748    0.00234     0.39982
      H   19    0.09846      0.00000     0.39992    0.00163     0.40154
      H   20    0.10010      0.00000     0.39865    0.00126     0.39990
      H   21    0.09859      0.00000     0.39969    0.00172     0.40141
      H   22    0.09851      0.00000     0.40020    0.00130     0.40149
      H   23    0.10283      0.00000     0.39606    0.00111     0.39717
      H   24    0.10208      0.00000     0.39681    0.00111     0.39792
      H   25    0.10158      0.00000     0.39746    0.00096     0.39842
      H   26    0.10016      0.00000     0.39878    0.00106     0.39984
      H   27    0.09986      0.00000     0.39839    0.00175     0.40014
      H   28    0.10078      0.00000     0.39763    0.00159     0.39922
      H   29    0.10001      0.00000     0.39887    0.00112     0.39999
      H   30    0.10265      0.00000     0.39634    0.00100     0.39735
      H   31    0.10234      0.00000     0.39666    0.00101     0.39766
      H   32    0.10364      0.00000     0.39536    0.00100     0.39636
 =======================================================================
   * Total *   -0.00000     11.99491    33.85822    0.14688    46.00000

                                 Natural Population      
 --------------------------------------------------------
   Core                      11.99491 ( 99.9575% of  12)
   Valence                   33.85822 ( 99.5830% of  34)
   Natural Minimal Basis     45.85312 ( 99.6807% of  46)
   Natural Rydberg Basis      0.14688 (  0.3193% of  46)
 --------------------------------------------------------

    Atom  No          Natural Electron Configuration
 ----------------------------------------------------------------------------
      C    1      [core]2S( 0.54)2p( 1.74)
      C    2      [core]2S( 0.51)2p( 1.67)
      C    3      [core]2S( 0.48)2p( 1.62)3p( 0.01)
      C    4      [core]2S( 0.51)2p( 1.67)3p( 0.01)
      C    5      [core]2S( 0.50)2p( 1.67)
      C    6      [core]2S( 0.43)2p( 1.60)3p( 0.01)
      C    7      [core]2S( 0.50)2p( 1.69)
      C    8      [core]2S( 0.50)2p( 1.69)
      C    9      [core]2S( 0.43)2p( 1.60)3p( 0.01)
      C   10      [core]2S( 0.50)2p( 1.67)3p( 0.01)
      C   11      [core]2S( 0.49)2p( 1.69)
      C   12      [core]2S( 0.50)2p( 1.69)
      H   13            1S( 0.40)
      H   14            1S( 0.40)
      H   15            1S( 0.40)
      H   16            1S( 0.40)
      H   17            1S( 0.40)
      H   18            1S( 0.40)
      H   19            1S( 0.40)
      H   20            1S( 0.40)
      H   21            1S( 0.40)
      H   22            1S( 0.40)
      H   23            1S( 0.40)
      H   24            1S( 0.40)
      H   25            1S( 0.40)
      H   26            1S( 0.40)
      H   27            1S( 0.40)
      H   28            1S( 0.40)
      H   29            1S( 0.40)
      H   30            1S( 0.40)
      H   31            1S( 0.40)
      H   32            1S( 0.40)


 NBO analysis skipped by request.
 1\1\GINC-NODE309\SP\UB3LYP\6-311++G(d,p)\C12H20(1-,2)\VSC10255\09-Dec-
 2020\0\\# B3LYP/6-311++G(d,p) empiricaldispersion=gd3bj scf=xqc pop=np
 a geom=check\\CID_153109467_JID_2917_Energie_anion\\-1,2\C,0,0.8546323
 996,-0.0441332439,-0.0160753108\C,0,0.7704300976,0.425469717,1.4403188
 851\C,0,1.4606550897,1.7500185102,1.8440657948\C,0,2.9300320474,1.8715
 274456,1.3830671572\C,0,3.0998572932,2.3924352285,-0.0532470112\C,0,2.
 3435242543,3.6949922812,-0.2658222389\C,0,3.0532685489,4.9825899249,0.
 0890144782\C,0,2.8203221514,4.6132084002,-1.3585372688\C,0,0.877250846
 4,3.5648171764,0.0777922159\C,0,0.6738018201,3.0340503423,1.4912521102
 \C,0,-0.1234054441,4.575905322,-0.419906799\C,0,-0.1056971761,3.184760
 0011,-1.0062696273\H,0,0.4781081333,0.7044163045,-0.7167729163\H,0,0.2
 62508529,-0.9573317478,-0.1490508586\H,0,1.8844822223,-0.283081366,-0.
 3011185489\H,0,-0.286947873,0.4984624988,1.731367886\H,0,1.1969285439,
 -0.3684400936,2.0694311096\H,0,1.4811973428,1.7169054954,2.9426057848\
 H,0,3.4427376689,2.5734470107,2.0547787541\H,0,3.4378654742,0.90484607
 94,1.4975831729\H,0,2.743727657,1.6543339478,-0.7795114758\H,0,4.16670
 11514,2.54605955,-0.2603090896\H,0,2.4555788621,5.7905284819,0.5022847
 532\H,0,4.0661876338,4.9273636929,0.4800824813\H,0,3.6741276055,4.2846
 71651,-1.945772639\H,0,2.0989315687,5.1938037111,-1.9261074027\H,0,-0.
 3958332915,2.8757705217,1.6813699423\H,0,0.9983130786,3.8251924007,2.1
 827856401\H,0,0.2109604528,5.4012563034,-1.0416272132\H,0,-0.940688768
 6,4.8357993262,0.2482800304\H,0,0.2779772678,3.0684432795,-2.01657495\
 H,0,-0.9244351876,2.515061847,-0.7571368462\\Version=ES64L-G16RevA.03\
 State=2-A\HF=-469.4315964\S2=0.750035\S2-1=0.\S2A=0.75\RMSD=3.384e-09\
 Dipole=-0.0855541,1.0684235,-1.5366433\Quadrupole=0.4159813,-4.7638453
 ,4.347864,-3.4456421,0.7630711,6.9300303\PG=C01 [X(C12H20)]\\@


 IF THERE IS ONE WAY BETTER THAN ANOTHER IT IS THE WAY OF NATURE.

                          -- ARISTOTLE
 Job cpu time:       0 days  0 hours 38 minutes 14.2 seconds.
 Elapsed time:       0 days  0 hours  9 minutes 43.3 seconds.
 File lengths (MBytes):  RWF=    208 Int=      0 D2E=      0 Chk=     20 Scr=      8
 Normal termination of Gaussian 16 at Wed Dec  9 18:42:48 2020.
