 Entering Gaussian System, Link 0=g16
 Initial command:
 /apps/brussel/CO7/broadwell/software/Gaussian/G16.A.03-intel-2017b/g16/l1.exe "/scratch/brussel/102/vsc10255/3546946[3305].master01.hydra.brussel.vsc/Gau-340.inp" -scrdir="/scratch/brussel/102/vsc10255/3546946[3305].master01.hydra.brussel.vsc/"
 Entering Link 1 = /apps/brussel/CO7/broadwell/software/Gaussian/G16.A.03-intel-2017b/g16/l1.exe.bin PID=       383.
  
 Copyright (c) 1988,1990,1992,1993,1995,1998,2003,2009,2016,
            Gaussian, Inc.  All Rights Reserved.
  
 This is part of the Gaussian(R) 16 program.  It is based on
 the Gaussian(R) 09 system (copyright 2009, Gaussian, Inc.),
 the Gaussian(R) 03 system (copyright 2003, Gaussian, Inc.),
 the Gaussian(R) 98 system (copyright 1998, Gaussian, Inc.),
 the Gaussian(R) 94 system (copyright 1995, Gaussian, Inc.),
 the Gaussian 92(TM) system (copyright 1992, Gaussian, Inc.),
 the Gaussian 90(TM) system (copyright 1990, Gaussian, Inc.),
 the Gaussian 88(TM) system (copyright 1988, Gaussian, Inc.),
 the Gaussian 86(TM) system (copyright 1986, Carnegie Mellon
 University), and the Gaussian 82(TM) system (copyright 1983,
 Carnegie Mellon University). Gaussian is a federally registered
 trademark of Gaussian, Inc.
  
 This software contains proprietary and confidential information,
 including trade secrets, belonging to Gaussian, Inc.
  
 This software is provided under written license and may be
 used, copied, transmitted, or stored only in accord with that
 written license.
  
 The following legend is applicable only to US Government
 contracts under FAR:
  
                    RESTRICTED RIGHTS LEGEND
  
 Use, reproduction and disclosure by the US Government is
 subject to restrictions as set forth in subparagraphs (a)
 and (c) of the Commercial Computer Software - Restricted
 Rights clause in FAR 52.227-19.
  
 Gaussian, Inc.
 340 Quinnipiac St., Bldg. 40, Wallingford CT 06492
  
  
 ---------------------------------------------------------------
 Warning -- This program may not be used in any manner that
 competes with the business of Gaussian, Inc. or will provide
 assistance to any competitor of Gaussian, Inc.  The licensee
 of this program is prohibited from giving any competitor of
 Gaussian, Inc. access to this program.  By using this program,
 the user acknowledges that Gaussian, Inc. is engaged in the
 business of creating and licensing software in the field of
 computational chemistry and represents and warrants to the
 licensee that it is not a competitor of Gaussian, Inc. and that
 it will not use this program in any manner prohibited above.
 ---------------------------------------------------------------
  

 Cite this work as:
 Gaussian 16, Revision A.03,
 M. J. Frisch, G. W. Trucks, H. B. Schlegel, G. E. Scuseria, 
 M. A. Robb, J. R. Cheeseman, G. Scalmani, V. Barone, 
 G. A. Petersson, H. Nakatsuji, X. Li, M. Caricato, A. V. Marenich, 
 J. Bloino, B. G. Janesko, R. Gomperts, B. Mennucci, H. P. Hratchian, 
 J. V. Ortiz, A. F. Izmaylov, J. L. Sonnenberg, D. Williams-Young, 
 F. Ding, F. Lipparini, F. Egidi, J. Goings, B. Peng, A. Petrone, 
 T. Henderson, D. Ranasinghe, V. G. Zakrzewski, J. Gao, N. Rega, 
 G. Zheng, W. Liang, M. Hada, M. Ehara, K. Toyota, R. Fukuda, 
 J. Hasegawa, M. Ishida, T. Nakajima, Y. Honda, O. Kitao, H. Nakai, 
 T. Vreven, K. Throssell, J. A. Montgomery, Jr., J. E. Peralta, 
 F. Ogliaro, M. J. Bearpark, J. J. Heyd, E. N. Brothers, K. N. Kudin, 
 V. N. Staroverov, T. A. Keith, R. Kobayashi, J. Normand, 
 K. Raghavachari, A. P. Rendell, J. C. Burant, S. S. Iyengar, 
 J. Tomasi, M. Cossi, J. M. Millam, M. Klene, C. Adamo, R. Cammi, 
 J. W. Ochterski, R. L. Martin, K. Morokuma, O. Farkas, 
 J. B. Foresman, and D. J. Fox, Gaussian, Inc., Wallingford CT, 2016.
 
 ******************************************
 Gaussian 16:  ES64L-G16RevA.03 25-Dec-2016
                 9-Dec-2020 
 ******************************************
 %chk=JID_3305.chk
 %mem=8GB
 %nprocshared=4
 Will use up to    4 processors via shared memory.
 -----------------------------------------------------------
 # opt freq B3LYP/6-31G(d) empiricaldispersion=gd3bj scf=xqc
 -----------------------------------------------------------
 1/18=20,19=15,26=3,38=1/1,3;
 2/9=110,12=2,17=6,18=5,40=1/2;
 3/5=1,6=6,7=1,11=2,25=1,30=1,71=1,74=-5,124=41/1,2,3;
 4//1;
 5/5=2,8=3,13=1,38=5/2,8;
 6/7=2,8=2,9=2,10=2,28=1/1;
 7//1,2,3,16;
 1/18=20,19=15,26=3/3(2);
 2/9=110/2;
 99//99;
 2/9=110/2;
 3/5=1,6=6,7=1,11=2,25=1,30=1,71=1,74=-5,124=41/1,2,3;
 4/5=5,16=3,69=1/1;
 5/5=2,8=3,13=1,38=5/2,8;
 7//1,2,3,16;
 1/18=20,19=15,26=3/3(-5);
 2/9=110/2;
 6/7=2,8=2,9=2,10=2,19=2,28=1/1;
 99/9=1/99;
 -------------------------------
 CID_147867702_JID_3305_neutraal
 -------------------------------
 Symbolic Z-matrix:
 Charge =  0 Multiplicity = 1
 C                     1.03364  -0.09142  -0.02257 
 C                     0.56925   1.14983  -0.78242 
 C                     0.92638   1.02783  -2.25961 
 N                    -0.89408   1.25427  -0.61354 
 S                    -1.59859   2.79659  -0.58125 
 O                    -1.03652   3.52035  -1.70332 
 O                    -3.02402   2.53842  -0.53141 
 C                    -1.09957   3.53467   0.93583 
 C                    -0.68049   4.81383   0.93005 
 C                    -0.2398    5.53462   2.17272 
 C                    -0.40507   4.7579    3.49315 
 C                    -0.83598   3.32592   3.35015 
 C                    -1.15531   2.77655   2.16949 
 H                     0.5592   -0.99972  -0.41102 
 H                     0.77681  -0.01405   1.03975 
 H                     2.11906  -0.21312  -0.09985 
 H                     1.06785   2.02275  -0.3474 
 H                     0.42667   0.16932  -2.72206 
 H                     0.63083   1.91921  -2.82017 
 H                     2.00661   0.90046  -2.3874 
 H                    -1.44702   0.63805  -1.21072 
 H                    -0.64398   5.38105   0.00214 
 H                    -0.79424   6.47837   2.24611 
 H                     0.81522   5.81025   2.05121 
 H                     0.54274   4.78837   4.04424 
 H                    -1.14073   5.27549   4.12145 
 H                    -0.90284   2.7304    4.25679 
 H                    -1.48137   1.74058   2.11392 
 

 GradGradGradGradGradGradGradGradGradGradGradGradGradGradGradGradGradGrad
 Berny optimization.
 Initialization pass.
                           ----------------------------
                           !    Initial Parameters    !
                           ! (Angstroms and Degrees)  !
 --------------------------                            --------------------------
 ! Name  Definition              Value          Derivative Info.                !
 --------------------------------------------------------------------------------
 ! R1    R(1,2)                  1.5277         estimate D2E/DX2                !
 ! R2    R(1,14)                 1.0959         estimate D2E/DX2                !
 ! R3    R(1,15)                 1.0957         estimate D2E/DX2                !
 ! R4    R(1,16)                 1.095          estimate D2E/DX2                !
 ! R5    R(2,3)                  1.5246         estimate D2E/DX2                !
 ! R6    R(2,4)                  1.4767         estimate D2E/DX2                !
 ! R7    R(2,17)                 1.0954         estimate D2E/DX2                !
 ! R8    R(3,18)                 1.0957         estimate D2E/DX2                !
 ! R9    R(3,19)                 1.0937         estimate D2E/DX2                !
 ! R10   R(3,20)                 1.0952         estimate D2E/DX2                !
 ! R11   R(4,5)                  1.6959         estimate D2E/DX2                !
 ! R12   R(4,21)                 1.0208         estimate D2E/DX2                !
 ! R13   R(5,6)                  1.4487         estimate D2E/DX2                !
 ! R14   R(5,7)                  1.4495         estimate D2E/DX2                !
 ! R15   R(5,8)                  1.7594         estimate D2E/DX2                !
 ! R16   R(8,9)                  1.3461         estimate D2E/DX2                !
 ! R17   R(8,13)                 1.4491         estimate D2E/DX2                !
 ! R18   R(9,10)                 1.5027         estimate D2E/DX2                !
 ! R19   R(9,22)                 1.0882         estimate D2E/DX2                !
 ! R20   R(10,11)                1.5408         estimate D2E/DX2                !
 ! R21   R(10,23)                1.097          estimate D2E/DX2                !
 ! R22   R(10,24)                1.0972         estimate D2E/DX2                !
 ! R23   R(11,12)                1.5022         estimate D2E/DX2                !
 ! R24   R(11,25)                1.0968         estimate D2E/DX2                !
 ! R25   R(11,26)                1.0972         estimate D2E/DX2                !
 ! R26   R(12,13)                1.3408         estimate D2E/DX2                !
 ! R27   R(12,27)                1.0868         estimate D2E/DX2                !
 ! R28   R(13,28)                1.0875         estimate D2E/DX2                !
 ! A1    A(2,1,14)             111.4396         estimate D2E/DX2                !
 ! A2    A(2,1,15)             110.7094         estimate D2E/DX2                !
 ! A3    A(2,1,16)             110.8882         estimate D2E/DX2                !
 ! A4    A(14,1,15)            107.5008         estimate D2E/DX2                !
 ! A5    A(14,1,16)            108.1808         estimate D2E/DX2                !
 ! A6    A(15,1,16)            107.9776         estimate D2E/DX2                !
 ! A7    A(1,2,3)              110.2242         estimate D2E/DX2                !
 ! A8    A(1,2,4)              107.5663         estimate D2E/DX2                !
 ! A9    A(1,2,17)             108.1558         estimate D2E/DX2                !
 ! A10   A(3,2,4)              110.4            estimate D2E/DX2                !
 ! A11   A(3,2,17)             109.9946         estimate D2E/DX2                !
 ! A12   A(4,2,17)             110.4431         estimate D2E/DX2                !
 ! A13   A(2,3,18)             111.3944         estimate D2E/DX2                !
 ! A14   A(2,3,19)             111.5971         estimate D2E/DX2                !
 ! A15   A(2,3,20)             110.6952         estimate D2E/DX2                !
 ! A16   A(18,3,19)            107.3988         estimate D2E/DX2                !
 ! A17   A(18,3,20)            108.0265         estimate D2E/DX2                !
 ! A18   A(19,3,20)            107.5492         estimate D2E/DX2                !
 ! A19   A(2,4,5)              118.5639         estimate D2E/DX2                !
 ! A20   A(2,4,21)             115.2866         estimate D2E/DX2                !
 ! A21   A(5,4,21)             109.5786         estimate D2E/DX2                !
 ! A22   A(4,5,6)              106.166          estimate D2E/DX2                !
 ! A23   A(4,5,7)              104.3117         estimate D2E/DX2                !
 ! A24   A(4,5,8)              106.267          estimate D2E/DX2                !
 ! A25   A(6,5,7)              119.8119         estimate D2E/DX2                !
 ! A26   A(6,5,8)              110.3796         estimate D2E/DX2                !
 ! A27   A(7,5,8)              108.9053         estimate D2E/DX2                !
 ! A28   A(5,8,9)              118.8991         estimate D2E/DX2                !
 ! A29   A(5,8,13)             120.2466         estimate D2E/DX2                !
 ! A30   A(9,8,13)             120.8509         estimate D2E/DX2                !
 ! A31   A(8,9,10)             122.9282         estimate D2E/DX2                !
 ! A32   A(8,9,22)             120.628          estimate D2E/DX2                !
 ! A33   A(10,9,22)            116.4436         estimate D2E/DX2                !
 ! A34   A(9,10,11)            115.8129         estimate D2E/DX2                !
 ! A35   A(9,10,23)            108.6485         estimate D2E/DX2                !
 ! A36   A(9,10,24)            108.1148         estimate D2E/DX2                !
 ! A37   A(11,10,23)           108.7914         estimate D2E/DX2                !
 ! A38   A(11,10,24)           108.9463         estimate D2E/DX2                !
 ! A39   A(23,10,24)           106.0977         estimate D2E/DX2                !
 ! A40   A(10,11,12)           115.4492         estimate D2E/DX2                !
 ! A41   A(10,11,25)           108.8982         estimate D2E/DX2                !
 ! A42   A(10,11,26)           108.9563         estimate D2E/DX2                !
 ! A43   A(12,11,25)           108.7955         estimate D2E/DX2                !
 ! A44   A(12,11,26)           108.1713         estimate D2E/DX2                !
 ! A45   A(25,11,26)           106.1754         estimate D2E/DX2                !
 ! A46   A(11,12,13)           122.8684         estimate D2E/DX2                !
 ! A47   A(11,12,27)           117.424          estimate D2E/DX2                !
 ! A48   A(13,12,27)           119.6981         estimate D2E/DX2                !
 ! A49   A(8,13,12)            121.7454         estimate D2E/DX2                !
 ! A50   A(8,13,28)            117.8025         estimate D2E/DX2                !
 ! A51   A(12,13,28)           120.446          estimate D2E/DX2                !
 ! D1    D(14,1,2,3)           -60.1521         estimate D2E/DX2                !
 ! D2    D(14,1,2,4)            60.2638         estimate D2E/DX2                !
 ! D3    D(14,1,2,17)          179.5629         estimate D2E/DX2                !
 ! D4    D(15,1,2,3)          -179.7461         estimate D2E/DX2                !
 ! D5    D(15,1,2,4)           -59.3303         estimate D2E/DX2                !
 ! D6    D(15,1,2,17)           59.9689         estimate D2E/DX2                !
 ! D7    D(16,1,2,3)            60.4222         estimate D2E/DX2                !
 ! D8    D(16,1,2,4)          -179.1619         estimate D2E/DX2                !
 ! D9    D(16,1,2,17)          -59.8627         estimate D2E/DX2                !
 ! D10   D(1,2,3,18)            61.7034         estimate D2E/DX2                !
 ! D11   D(1,2,3,19)          -178.2639         estimate D2E/DX2                !
 ! D12   D(1,2,3,20)           -58.5145         estimate D2E/DX2                !
 ! D13   D(4,2,3,18)           -56.9933         estimate D2E/DX2                !
 ! D14   D(4,2,3,19)            63.0395         estimate D2E/DX2                !
 ! D15   D(4,2,3,20)          -177.2111         estimate D2E/DX2                !
 ! D16   D(17,2,3,18)         -179.1252         estimate D2E/DX2                !
 ! D17   D(17,2,3,19)          -59.0925         estimate D2E/DX2                !
 ! D18   D(17,2,3,20)           60.657          estimate D2E/DX2                !
 ! D19   D(1,2,4,5)            148.1736         estimate D2E/DX2                !
 ! D20   D(1,2,4,21)           -79.0488         estimate D2E/DX2                !
 ! D21   D(3,2,4,5)            -91.5217         estimate D2E/DX2                !
 ! D22   D(3,2,4,21)            41.2559         estimate D2E/DX2                !
 ! D23   D(17,2,4,5)            30.3459         estimate D2E/DX2                !
 ! D24   D(17,2,4,21)          163.1235         estimate D2E/DX2                !
 ! D25   D(2,4,5,6)             47.4151         estimate D2E/DX2                !
 ! D26   D(2,4,5,7)            174.8712         estimate D2E/DX2                !
 ! D27   D(2,4,5,8)            -70.1194         estimate D2E/DX2                !
 ! D28   D(21,4,5,6)           -87.8044         estimate D2E/DX2                !
 ! D29   D(21,4,5,7)            39.6517         estimate D2E/DX2                !
 ! D30   D(21,4,5,8)           154.6611         estimate D2E/DX2                !
 ! D31   D(4,5,8,9)            135.5006         estimate D2E/DX2                !
 ! D32   D(4,5,8,13)           -45.1642         estimate D2E/DX2                !
 ! D33   D(6,5,8,9)             20.805          estimate D2E/DX2                !
 ! D34   D(6,5,8,13)          -159.8598         estimate D2E/DX2                !
 ! D35   D(7,5,8,9)           -112.6528         estimate D2E/DX2                !
 ! D36   D(7,5,8,13)            66.6824         estimate D2E/DX2                !
 ! D37   D(5,8,9,10)           179.7345         estimate D2E/DX2                !
 ! D38   D(5,8,9,22)            -0.4143         estimate D2E/DX2                !
 ! D39   D(13,8,9,10)            0.4035         estimate D2E/DX2                !
 ! D40   D(13,8,9,22)         -179.7454         estimate D2E/DX2                !
 ! D41   D(5,8,13,12)         -177.1532         estimate D2E/DX2                !
 ! D42   D(5,8,13,28)            1.9531         estimate D2E/DX2                !
 ! D43   D(9,8,13,12)            2.1689         estimate D2E/DX2                !
 ! D44   D(9,8,13,28)         -178.7248         estimate D2E/DX2                !
 ! D45   D(8,9,10,11)           -4.9306         estimate D2E/DX2                !
 ! D46   D(8,9,10,23)         -127.6751         estimate D2E/DX2                !
 ! D47   D(8,9,10,24)          117.5975         estimate D2E/DX2                !
 ! D48   D(22,9,10,11)         175.2124         estimate D2E/DX2                !
 ! D49   D(22,9,10,23)          52.468          estimate D2E/DX2                !
 ! D50   D(22,9,10,24)         -62.2595         estimate D2E/DX2                !
 ! D51   D(9,10,11,12)           6.7689         estimate D2E/DX2                !
 ! D52   D(9,10,11,25)         129.4568         estimate D2E/DX2                !
 ! D53   D(9,10,11,26)        -115.1441         estimate D2E/DX2                !
 ! D54   D(23,10,11,12)        129.438          estimate D2E/DX2                !
 ! D55   D(23,10,11,25)       -107.8742         estimate D2E/DX2                !
 ! D56   D(23,10,11,26)          7.5249         estimate D2E/DX2                !
 ! D57   D(24,10,11,12)       -115.3184         estimate D2E/DX2                !
 ! D58   D(24,10,11,25)          7.3694         estimate D2E/DX2                !
 ! D59   D(24,10,11,26)        122.7686         estimate D2E/DX2                !
 ! D60   D(10,11,12,13)         -4.8244         estimate D2E/DX2                !
 ! D61   D(10,11,12,27)        176.2978         estimate D2E/DX2                !
 ! D62   D(25,11,12,13)       -127.5668         estimate D2E/DX2                !
 ! D63   D(25,11,12,27)         53.5554         estimate D2E/DX2                !
 ! D64   D(26,11,12,13)        117.5086         estimate D2E/DX2                !
 ! D65   D(26,11,12,27)        -61.3693         estimate D2E/DX2                !
 ! D66   D(11,12,13,8)           0.2984         estimate D2E/DX2                !
 ! D67   D(11,12,13,28)       -178.7846         estimate D2E/DX2                !
 ! D68   D(27,12,13,8)         179.1517         estimate D2E/DX2                !
 ! D69   D(27,12,13,28)          0.0687         estimate D2E/DX2                !
 --------------------------------------------------------------------------------
 Trust Radius=3.00D-01 FncErr=1.00D-07 GrdErr=1.00D-06 EigMax=2.50D+02 EigMin=1.00D-04
 Number of steps in this run=    158 maximum allowed number of steps=    168.
 GradGradGradGradGradGradGradGradGradGradGradGradGradGradGradGradGradGrad

                          Input orientation:                          
 ---------------------------------------------------------------------
 Center     Atomic      Atomic             Coordinates (Angstroms)
 Number     Number       Type             X           Y           Z
 ---------------------------------------------------------------------
      1          6           0        1.033640   -0.091420   -0.022570
      2          6           0        0.569250    1.149830   -0.782420
      3          6           0        0.926380    1.027830   -2.259610
      4          7           0       -0.894080    1.254270   -0.613540
      5         16           0       -1.598590    2.796590   -0.581250
      6          8           0       -1.036520    3.520350   -1.703320
      7          8           0       -3.024020    2.538420   -0.531410
      8          6           0       -1.099570    3.534670    0.935830
      9          6           0       -0.680490    4.813830    0.930050
     10          6           0       -0.239800    5.534620    2.172720
     11          6           0       -0.405070    4.757900    3.493150
     12          6           0       -0.835980    3.325920    3.350150
     13          6           0       -1.155310    2.776550    2.169490
     14          1           0        0.559200   -0.999720   -0.411020
     15          1           0        0.776810   -0.014050    1.039750
     16          1           0        2.119060   -0.213120   -0.099850
     17          1           0        1.067850    2.022750   -0.347400
     18          1           0        0.426670    0.169320   -2.722060
     19          1           0        0.630830    1.919210   -2.820170
     20          1           0        2.006610    0.900460   -2.387400
     21          1           0       -1.447020    0.638050   -1.210720
     22          1           0       -0.643980    5.381050    0.002140
     23          1           0       -0.794240    6.478370    2.246110
     24          1           0        0.815220    5.810250    2.051210
     25          1           0        0.542740    4.788370    4.044240
     26          1           0       -1.140730    5.275490    4.121450
     27          1           0       -0.902840    2.730400    4.256790
     28          1           0       -1.481370    1.740580    2.113920
 ---------------------------------------------------------------------
                    Distance matrix (angstroms):
                    1          2          3          4          5
     1  C    0.000000
     2  C    1.527656   0.000000
     3  C    2.503712   1.524636   0.000000
     4  N    2.424094   1.476741   2.464730   0.000000
     5  S    3.947323   2.729802   3.510111   1.695915   0.000000
     6  O    4.489473   3.007643   3.221039   2.518537   1.448721
     7  O    4.862055   3.860412   4.568831   2.488460   1.449478
     8  C    4.314817   3.380060   4.538673   2.764597   1.759351
     9  C    5.282727   4.233119   5.204782   3.885712   2.682572
    10  C    6.171975   5.349187   6.427805   5.149051   4.114301
    11  C    6.160039   5.678729   6.984299   5.420282   4.676747
    12  C    5.152566   4.877312   6.313203   4.472801   4.039514
    13  C    4.221597   3.786040   5.196959   3.182897   2.786300
    14  H    1.095899   2.181423   2.768224   2.689518   4.370012
    15  H    1.095660   2.172096   3.463187   2.670932   4.021177
    16  H    1.094952   2.173809   2.761703   3.390593   4.807392
    17  H    2.139252   1.095369   2.160191   2.123808   2.786291
    18  H    2.779145   2.178057   1.095723   2.714287   3.948075
    19  H    3.468639   2.179028   1.093680   2.763460   3.279157
    20  H    2.742794   2.168905   1.095194   3.418445   4.455890
    21  H    2.845611   2.123842   2.623952   1.020830   2.253553
    22  H    5.723893   4.471094   5.150929   4.179943   2.816213
    23  H    7.186807   6.278888   7.278079   5.956407   4.711311
    24  H    6.259232   5.459805   6.439493   5.547932   4.673165
    25  H    6.371207   6.044528   7.350331   6.020733   5.472444
    26  H    7.120710   6.632725   7.939363   6.217007   5.335726
    27  H    5.479557   5.482599   6.979130   5.089121   4.888259
    28  H    3.774399   3.597612   5.043118   2.832039   2.897040
                    6          7          8          9         10
     6  O    0.000000
     7  O    2.507532   0.000000
     8  C    2.639942   2.617024   0.000000
     9  C    2.955416   3.578476   1.346073   0.000000
    10  C    4.440240   4.903205   2.503777   1.502656   0.000000
    11  C    5.378992   5.289808   2.918648   2.578462   1.540826
    12  C    5.061183   4.524841   2.437621   2.845160   2.572961
    13  C    3.945378   3.292969   1.449058   2.431497   2.906049
    14  H    4.964614   5.037102   5.012606   6.093658   7.071896
    15  H    4.827482   4.840450   4.015596   5.044223   5.753682
    16  H    5.144667   5.848802   5.047588   5.845374   6.615536
    17  H    2.917139   4.128338   2.937736   3.532520   4.515992
    18  H    3.795808   4.724282   5.199533   6.011255   7.293113
    19  H    2.567306   4.356578   4.439767   4.915540   6.225603
    20  H    4.073381   5.606679   5.256546   5.791411   6.878698
    21  H    2.952765   2.561210   3.621989   4.754745   6.073009
    22  H    2.554386   3.745639   2.118598   1.088158   2.213225
    23  H    4.940302   5.311284   3.236577   2.125005   1.097020
    24  H    4.771696   5.666971   3.176280   2.118254   1.097180
    25  H    6.093963   6.222590   3.732447   3.345911   2.161445
    26  H    6.084351   5.717293   3.630471   3.257297   2.162492
    27  H    6.013718   5.240527   3.422620   3.931580   3.556209
    28  H    4.235185   3.164504   2.180006   3.389369   3.992455
                   11         12         13         14         15
    11  C    0.000000
    12  C    1.502231   0.000000
    13  C    2.498136   1.340797   0.000000
    14  H    7.023001   5.899499   4.884546   0.000000
    15  H    5.494317   4.369718   3.577268   1.767380   0.000000
    16  H    6.632641   5.758434   4.980917   1.774466   1.771991
    17  H    4.939672   4.358291   3.441713   3.065632   2.481420
    18  H    7.770180   6.959177   5.764336   2.593285   3.782517
    19  H    6.999233   6.496400   5.368616   3.785404   4.319466
    20  H    7.434844   6.847091   5.855143   3.100283   3.754210
    21  H    6.339181   5.329123   4.010498   2.710485   3.230367
    22  H    3.554229   3.933141   3.426702   6.506348   5.674714
    23  H    2.160227   3.340447   3.720177   8.050712   6.787858
    24  H    2.162346   3.253552   3.619436   7.245952   5.911599
    25  H    1.096801   2.126356   3.231947   7.304218   5.669655
    26  H    1.097204   2.118632   3.170972   7.925358   6.415066
    27  H    2.222988   1.086789   2.103020   6.151407   4.550008
    28  H    3.487824   2.111420   1.087491   4.248352   3.054823
                   16         17         18         19         20
    16  H    0.000000
    17  H    2.483030   0.000000
    18  H    3.144269   3.079825   0.000000
    19  H    3.763217   2.513225   1.764489   0.000000
    20  H    2.546682   2.510459   1.772787   1.765761   0.000000
    21  H    3.830855   2.997880   2.452462   2.923895   3.658004
    22  H    6.240155   3.785594   5.977431   4.644880   5.728107
    23  H    7.665956   5.481444   8.122650   6.963042   7.773497
    24  H    6.527484   4.490246   7.399674   6.237350   6.725080
    25  H    6.683799   5.216406   8.193407   7.440428   7.656680
    26  H    7.653133   5.952207   8.681206   7.911329   8.450548
    27  H    6.064363   5.057959   7.551892   7.286531   7.480564
    28  H    4.656266   3.554749   5.431038   5.370153   5.756187
                   21         22         23         24         25
    21  H    0.000000
    22  H    4.961043   0.000000
    23  H    6.818001   2.502417   0.000000
    24  H    6.519936   2.551894   1.753491   0.000000
    25  H    6.985621   4.254192   2.806579   2.256247   0.000000
    26  H    7.073309   4.150496   2.254745   2.897862   1.754229
    27  H    5.879432   5.019462   4.254634   4.159542   2.523910
    28  H    3.502854   4.291137   4.789183   4.673379   4.136687
                   26         27         28
    26  H    0.000000
    27  H    2.559764   0.000000
    28  H    4.079436   2.430295   0.000000
 Stoichiometry    C9H15NO2S
 Framework group  C1[X(C9H15NO2S)]
 Deg. of freedom    78
 Full point group                 C1      NOp   1
 Largest Abelian subgroup         C1      NOp   1
 Largest concise Abelian subgroup C1      NOp   1
                         Standard orientation:                         
 ---------------------------------------------------------------------
 Center     Atomic      Atomic             Coordinates (Angstroms)
 Number     Number       Type             X           Y           Z
 ---------------------------------------------------------------------
      1          6           0       -2.390992    2.350255   -0.197598
      2          6           0       -2.081017    0.988275    0.420993
      3          6           0       -3.309863    0.444587    1.141310
      4          7           0       -1.683235    0.081355   -0.674465
      5         16           0       -0.553594   -1.140201   -0.346073
      6          8           0       -0.994237   -1.778769    0.877388
      7          8           0       -0.486548   -1.905996   -1.574913
      8          6           0        0.988089   -0.330919   -0.093903
      9          6           0        1.760959   -0.711341    0.940439
     10          6           0        3.095246   -0.086692    1.236190
     11          6           0        3.593642    0.948704    0.209691
     12          6           0        2.611867    1.314659   -0.866828
     13          6           0        1.418797    0.716933   -0.997377
     14          1           0       -3.207306    2.283082   -0.925688
     15          1           0       -1.514040    2.746508   -0.721439
     16          1           0       -2.679225    3.072607    0.573148
     17          1           0       -1.256520    1.115480    1.130822
     18          1           0       -4.145208    0.293800    0.448438
     19          1           0       -3.103627   -0.517310    1.619178
     20          1           0       -3.638668    1.137815    1.922829
     21          1           0       -2.453171   -0.303301   -1.223403
     22          1           0        1.435788   -1.501482    1.614256
     23          1           0        3.843577   -0.883813    1.325932
     24          1           0        3.037870    0.389232    2.223108
     25          1           0        3.891645    1.860731    0.741079
     26          1           0        4.501841    0.564791   -0.271600
     27          1           0        2.906951    2.087408   -1.571737
     28          1           0        0.746161    0.999537   -1.803810
 ---------------------------------------------------------------------
 Rotational constants (GHZ):           1.0745661           0.4846887           0.4218520
 Standard basis: 6-31G(d) (6D, 7F)
 There are   229 symmetry adapted cartesian basis functions of A   symmetry.
 There are   229 symmetry adapted basis functions of A   symmetry.
   229 basis functions,   448 primitive gaussians,   229 cartesian basis functions
    54 alpha electrons       54 beta electrons
       nuclear repulsion energy       985.4844606446 Hartrees.
 NAtoms=   28 NActive=   28 NUniq=   28 SFac= 1.00D+00 NAtFMM=   60 NAOKFM=F Big=F
 Integral buffers will be    131072 words long.
 Raffenetti 2 integral format.
 Two-electron integral symmetry is turned on.
 Nuclear repulsion after empirical dispersion term =      985.4288614028 Hartrees.
 One-electron integrals computed using PRISM.
 NBasis=   229 RedAO= T EigKep=  9.29D-04  NBF=   229
 NBsUse=   229 1.00D-06 EigRej= -1.00D+00 NBFU=   229
 ExpMin= 1.17D-01 ExpMax= 2.19D+04 ExpMxC= 3.30D+03 IAcc=3 IRadAn=         5 AccDes= 0.00D+00
 Harris functional with IExCor=  402 and IRadAn=       5 diagonalized for initial guess.
 HarFok:  IExCor=  402 AccDes= 0.00D+00 IRadAn=         5 IDoV= 1 UseB2=F ITyADJ=14
 ICtDFT=  3500011 ScaDFX=  1.000000  1.000000  1.000000  1.000000
 FoFCou: FMM=F IPFlag=           0 FMFlag=      100000 FMFlg1=           0
         NFxFlg=           0 DoJE=T BraDBF=F KetDBF=T FulRan=T
         wScrn=  0.000000 ICntrl=       500 IOpCl=  0 I1Cent=   200000004 NGrid=           0
         NMat0=    1 NMatS0=      1 NMatT0=    0 NMatD0=    1 NMtDS0=    0 NMtDT0=    0
 Petite list used in FoFCou.
 Keep R1 ints in memory in canonical form, NReq=352864346.
 Requested convergence on RMS density matrix=1.00D-08 within  32 cycles.
 Requested convergence on MAX density matrix=1.00D-06.
 Requested convergence on             energy=1.00D-06.
 No special actions if energy rises.
 Integral accuracy reduced to 1.0D-05 until final iterations.
 Initial convergence to 1.0D-05 achieved.  Increase integral accuracy.
 SCF Done:  E(RB3LYP) =  -955.329036561     A.U. after   15 cycles
            NFock= 15  Conv=0.56D-08     -V/T= 2.0070
 QCSCF skips out because SCF is already converged.

 **********************************************************************

            Population analysis using the SCF density.

 **********************************************************************

 Orbital symmetries:
       Occupied  (A) (A) (A) (A) (A) (A) (A) (A) (A) (A) (A) (A)
                 (A) (A) (A) (A) (A) (A) (A) (A) (A) (A) (A) (A)
                 (A) (A) (A) (A) (A) (A) (A) (A) (A) (A) (A) (A)
                 (A) (A) (A) (A) (A) (A) (A) (A) (A) (A) (A) (A)
                 (A) (A) (A) (A) (A) (A)
       Virtual   (A) (A) (A) (A) (A) (A) (A) (A) (A) (A) (A) (A)
                 (A) (A) (A) (A) (A) (A) (A) (A) (A) (A) (A) (A)
                 (A) (A) (A) (A) (A) (A) (A) (A) (A) (A) (A) (A)
                 (A) (A) (A) (A) (A) (A) (A) (A) (A) (A) (A) (A)
                 (A) (A) (A) (A) (A) (A) (A) (A) (A) (A) (A) (A)
                 (A) (A) (A) (A) (A) (A) (A) (A) (A) (A) (A) (A)
                 (A) (A) (A) (A) (A) (A) (A) (A) (A) (A) (A) (A)
                 (A) (A) (A) (A) (A) (A) (A) (A) (A) (A) (A) (A)
                 (A) (A) (A) (A) (A) (A) (A) (A) (A) (A) (A) (A)
                 (A) (A) (A) (A) (A) (A) (A) (A) (A) (A) (A) (A)
                 (A) (A) (A) (A) (A) (A) (A) (A) (A) (A) (A) (A)
                 (A) (A) (A) (A) (A) (A) (A) (A) (A) (A) (A) (A)
                 (A) (A) (A) (A) (A) (A) (A) (A) (A) (A) (A) (A)
                 (A) (A) (A) (A) (A) (A) (A) (A) (A) (A) (A) (A)
                 (A) (A) (A) (A) (A) (A) (A)
 The electronic state is 1-A.
 Alpha  occ. eigenvalues --  -89.10234 -19.12883 -19.12782 -14.35009 -10.23196
 Alpha  occ. eigenvalues --  -10.22632 -10.22092 -10.21073 -10.20458 -10.20308
 Alpha  occ. eigenvalues --  -10.19989 -10.18001 -10.17435  -8.12814  -6.09308
 Alpha  occ. eigenvalues --   -6.09213  -6.09135  -1.10912  -0.99505  -0.91411
 Alpha  occ. eigenvalues --   -0.86384  -0.78580  -0.77023  -0.76398  -0.68928
 Alpha  occ. eigenvalues --   -0.67556  -0.63367  -0.60629  -0.59427  -0.54211
 Alpha  occ. eigenvalues --   -0.50889  -0.48840  -0.47820  -0.47403  -0.46008
 Alpha  occ. eigenvalues --   -0.44774  -0.44187  -0.43190  -0.42299  -0.41520
 Alpha  occ. eigenvalues --   -0.39209  -0.39034  -0.38571  -0.36592  -0.35574
 Alpha  occ. eigenvalues --   -0.34918  -0.34516  -0.34366  -0.32665  -0.31612
 Alpha  occ. eigenvalues --   -0.29613  -0.29138  -0.24705  -0.22881
 Alpha virt. eigenvalues --   -0.05308   0.04129   0.06466   0.08155   0.09501
 Alpha virt. eigenvalues --    0.10668   0.10823   0.11383   0.12471   0.13184
 Alpha virt. eigenvalues --    0.14442   0.14674   0.14993   0.15410   0.16224
 Alpha virt. eigenvalues --    0.17057   0.17696   0.18586   0.20075   0.20613
 Alpha virt. eigenvalues --    0.21361   0.21975   0.22457   0.23609   0.24424
 Alpha virt. eigenvalues --    0.25641   0.26929   0.31435   0.36797   0.38622
 Alpha virt. eigenvalues --    0.39550   0.43636   0.46476   0.48442   0.50207
 Alpha virt. eigenvalues --    0.50671   0.51569   0.53437   0.54025   0.55779
 Alpha virt. eigenvalues --    0.56341   0.57521   0.57923   0.59704   0.60997
 Alpha virt. eigenvalues --    0.62136   0.62638   0.64090   0.65985   0.67048
 Alpha virt. eigenvalues --    0.67733   0.69506   0.72551   0.73998   0.74307
 Alpha virt. eigenvalues --    0.75539   0.78204   0.79402   0.81213   0.83160
 Alpha virt. eigenvalues --    0.83939   0.84589   0.84632   0.86131   0.87233
 Alpha virt. eigenvalues --    0.88430   0.88723   0.89222   0.89835   0.90115
 Alpha virt. eigenvalues --    0.90517   0.90796   0.91439   0.93034   0.93412
 Alpha virt. eigenvalues --    0.93940   0.94694   0.97035   0.97552   0.98694
 Alpha virt. eigenvalues --    1.01086   1.03468   1.05906   1.07047   1.07393
 Alpha virt. eigenvalues --    1.09882   1.14710   1.15637   1.16172   1.21172
 Alpha virt. eigenvalues --    1.23812   1.25328   1.25806   1.28257   1.30402
 Alpha virt. eigenvalues --    1.37504   1.38133   1.42072   1.43907   1.45222
 Alpha virt. eigenvalues --    1.46891   1.48363   1.50071   1.54732   1.61572
 Alpha virt. eigenvalues --    1.64730   1.66564   1.70469   1.72061   1.75923
 Alpha virt. eigenvalues --    1.78835   1.79919   1.81330   1.82814   1.83510
 Alpha virt. eigenvalues --    1.83989   1.85362   1.86983   1.87485   1.90140
 Alpha virt. eigenvalues --    1.91920   1.94611   1.95349   1.98138   1.99444
 Alpha virt. eigenvalues --    2.01488   2.03152   2.06278   2.08271   2.08955
 Alpha virt. eigenvalues --    2.10518   2.11453   2.14600   2.15917   2.17890
 Alpha virt. eigenvalues --    2.19826   2.20566   2.22731   2.24066   2.25185
 Alpha virt. eigenvalues --    2.27338   2.29855   2.32745   2.34458   2.35596
 Alpha virt. eigenvalues --    2.42478   2.48058   2.50573   2.51652   2.52524
 Alpha virt. eigenvalues --    2.56599   2.57518   2.64675   2.67098   2.68604
 Alpha virt. eigenvalues --    2.70735   2.72548   2.75600   2.79558   2.87951
 Alpha virt. eigenvalues --    2.99054   3.18525   3.80048   3.96597   4.03653
 Alpha virt. eigenvalues --    4.05059   4.10569   4.15152   4.19707   4.21181
 Alpha virt. eigenvalues --    4.28960   4.32903   4.41385   4.53938   4.65569
          Condensed to atoms (all electrons):
               1          2          3          4          5          6
     1  C    5.135215   0.377670  -0.070569  -0.062309  -0.000495   0.000174
     2  C    0.377670   4.787486   0.383967   0.243302   0.000399   0.005033
     3  C   -0.070569   0.383967   5.150154  -0.060232  -0.004633  -0.004547
     4  N   -0.062309   0.243302  -0.060232   7.356000   0.137696  -0.073398
     5  S   -0.000495   0.000399  -0.004633   0.137696  13.665116   0.430643
     6  O    0.000174   0.005033  -0.004547  -0.073398   0.430643   8.260823
     7  O   -0.000060   0.002054  -0.000148  -0.060908   0.490249  -0.046501
     8  C   -0.000446  -0.004389  -0.000064  -0.049659   0.183101  -0.064159
     9  C    0.000000  -0.000603   0.000027   0.001196  -0.034973   0.004345
    10  C   -0.000000  -0.000003  -0.000000  -0.000061   0.003284   0.000293
    11  C    0.000000   0.000000   0.000000  -0.000002  -0.000385  -0.000003
    12  C   -0.000044  -0.000010   0.000001   0.000298   0.002270  -0.000039
    13  C   -0.000303   0.000381   0.000032   0.000020  -0.026660   0.001192
    14  H    0.371270  -0.029084  -0.005601  -0.004076   0.000035  -0.000001
    15  H    0.366211  -0.028595   0.005665   0.001363  -0.000226   0.000005
    16  H    0.361673  -0.030472  -0.000135   0.004923   0.000112   0.000005
    17  H   -0.046330   0.385804  -0.041494  -0.042114   0.003370  -0.000295
    18  H   -0.006025  -0.032628   0.369871  -0.005583  -0.000004   0.000085
    19  H    0.005067  -0.026786   0.371010  -0.001525   0.001193   0.009092
    20  H   -0.001053  -0.031006   0.360809   0.005165   0.000188   0.000046
    21  H   -0.001966  -0.025919  -0.003312   0.298004  -0.009000  -0.000168
    22  H    0.000001  -0.000034   0.000001   0.000239  -0.005949   0.010991
    23  H    0.000000  -0.000000   0.000000  -0.000000  -0.000031  -0.000003
    24  H    0.000000   0.000006  -0.000000   0.000002  -0.000214   0.000013
    25  H    0.000000  -0.000000  -0.000000   0.000000   0.000012   0.000000
    26  H   -0.000000   0.000000   0.000000   0.000000   0.000009   0.000000
    27  H    0.000001  -0.000001  -0.000000  -0.000001  -0.000022   0.000000
    28  H   -0.000022  -0.000207   0.000025   0.007702  -0.003149   0.000058
               7          8          9         10         11         12
     1  C   -0.000060  -0.000446   0.000000  -0.000000   0.000000  -0.000044
     2  C    0.002054  -0.004389  -0.000603  -0.000003   0.000000  -0.000010
     3  C   -0.000148  -0.000064   0.000027  -0.000000   0.000000   0.000001
     4  N   -0.060908  -0.049659   0.001196  -0.000061  -0.000002   0.000298
     5  S    0.490249   0.183101  -0.034973   0.003284  -0.000385   0.002270
     6  O   -0.046501  -0.064159   0.004345   0.000293  -0.000003  -0.000039
     7  O    8.196129  -0.062427  -0.003045  -0.000062  -0.000005   0.000014
     8  C   -0.062427   5.293868   0.617515  -0.026847  -0.031653  -0.024818
     9  C   -0.003045   0.617515   4.984536   0.346490  -0.028690  -0.029742
    10  C   -0.000062  -0.026847   0.346490   5.081909   0.339003  -0.028448
    11  C   -0.000005  -0.031653  -0.028690   0.339003   5.056781   0.371761
    12  C    0.000014  -0.024818  -0.029742  -0.028448   0.371761   4.918425
    13  C    0.001170   0.359557  -0.026294  -0.029929  -0.024562   0.645322
    14  H    0.000000  -0.000005  -0.000000  -0.000000  -0.000000   0.000000
    15  H   -0.000006  -0.000042  -0.000001  -0.000000   0.000000   0.000119
    16  H    0.000000  -0.000005  -0.000001   0.000000   0.000000   0.000001
    17  H    0.000035   0.005398   0.000578  -0.000004   0.000000  -0.000059
    18  H    0.000002  -0.000003  -0.000000  -0.000000   0.000000  -0.000000
    19  H   -0.000022   0.000030  -0.000009  -0.000000   0.000000   0.000000
    20  H    0.000000   0.000011  -0.000001   0.000000   0.000000  -0.000000
    21  H    0.003770   0.002309  -0.000040   0.000001  -0.000000   0.000003
    22  H   -0.000075  -0.036170   0.357339  -0.044036   0.003757  -0.000032
    23  H    0.000004  -0.000220  -0.029205   0.367578  -0.031854   0.002165
    24  H   -0.000000  -0.002256  -0.034860   0.369746  -0.032576   0.001098
    25  H   -0.000000   0.001218   0.002404  -0.033150   0.369269  -0.032512
    26  H   -0.000000   0.001558   0.001446  -0.033284   0.369242  -0.034039
    27  H    0.000000   0.005915   0.000141   0.004341  -0.052141   0.363736
    28  H    0.000291  -0.053511   0.006685  -0.000180   0.006097  -0.044371
              13         14         15         16         17         18
     1  C   -0.000303   0.371270   0.366211   0.361673  -0.046330  -0.006025
     2  C    0.000381  -0.029084  -0.028595  -0.030472   0.385804  -0.032628
     3  C    0.000032  -0.005601   0.005665  -0.000135  -0.041494   0.369871
     4  N    0.000020  -0.004076   0.001363   0.004923  -0.042114  -0.005583
     5  S   -0.026660   0.000035  -0.000226   0.000112   0.003370  -0.000004
     6  O    0.001192  -0.000001   0.000005   0.000005  -0.000295   0.000085
     7  O    0.001170   0.000000  -0.000006   0.000000   0.000035   0.000002
     8  C    0.359557  -0.000005  -0.000042  -0.000005   0.005398  -0.000003
     9  C   -0.026294  -0.000000  -0.000001  -0.000001   0.000578  -0.000000
    10  C   -0.029929  -0.000000  -0.000000   0.000000  -0.000004  -0.000000
    11  C   -0.024562  -0.000000   0.000000   0.000000   0.000000   0.000000
    12  C    0.645322   0.000000   0.000119   0.000001  -0.000059  -0.000000
    13  C    4.887758  -0.000000   0.000904   0.000000  -0.000298  -0.000001
    14  H   -0.000000   0.572331  -0.029780  -0.029209   0.005016   0.004896
    15  H    0.000904  -0.029780   0.560698  -0.027161  -0.003064  -0.000028
    16  H    0.000000  -0.029209  -0.027161   0.577648  -0.002457  -0.000079
    17  H   -0.000298   0.005016  -0.003064  -0.002457   0.572551   0.005045
    18  H   -0.000001   0.004896  -0.000028  -0.000079   0.005045   0.582145
    19  H   -0.000000  -0.000036  -0.000183  -0.000008  -0.003246  -0.029434
    20  H   -0.000000  -0.000155  -0.000033   0.001658  -0.002014  -0.029079
    21  H   -0.000046   0.002754  -0.000153  -0.000130   0.004758   0.005835
    22  H    0.005799  -0.000000  -0.000000  -0.000000  -0.000052  -0.000000
    23  H    0.000998  -0.000000  -0.000000  -0.000000   0.000001  -0.000000
    24  H    0.002084   0.000000   0.000000   0.000000  -0.000013   0.000000
    25  H   -0.000494  -0.000000  -0.000001   0.000000   0.000000   0.000000
    26  H   -0.002291   0.000000   0.000000   0.000000  -0.000000   0.000000
    27  H   -0.033645  -0.000000  -0.000003  -0.000000  -0.000000  -0.000000
    28  H    0.365601  -0.000002   0.001021   0.000003  -0.000096  -0.000000
              19         20         21         22         23         24
     1  C    0.005067  -0.001053  -0.001966   0.000001   0.000000   0.000000
     2  C   -0.026786  -0.031006  -0.025919  -0.000034  -0.000000   0.000006
     3  C    0.371010   0.360809  -0.003312   0.000001   0.000000  -0.000000
     4  N   -0.001525   0.005165   0.298004   0.000239  -0.000000   0.000002
     5  S    0.001193   0.000188  -0.009000  -0.005949  -0.000031  -0.000214
     6  O    0.009092   0.000046  -0.000168   0.010991  -0.000003   0.000013
     7  O   -0.000022   0.000000   0.003770  -0.000075   0.000004  -0.000000
     8  C    0.000030   0.000011   0.002309  -0.036170  -0.000220  -0.002256
     9  C   -0.000009  -0.000001  -0.000040   0.357339  -0.029205  -0.034860
    10  C   -0.000000   0.000000   0.000001  -0.044036   0.367578   0.369746
    11  C    0.000000   0.000000  -0.000000   0.003757  -0.031854  -0.032576
    12  C    0.000000  -0.000000   0.000003  -0.000032   0.002165   0.001098
    13  C   -0.000000  -0.000000  -0.000046   0.005799   0.000998   0.002084
    14  H   -0.000036  -0.000155   0.002754  -0.000000  -0.000000   0.000000
    15  H   -0.000183  -0.000033  -0.000153  -0.000000  -0.000000   0.000000
    16  H   -0.000008   0.001658  -0.000130  -0.000000  -0.000000   0.000000
    17  H   -0.003246  -0.002014   0.004758  -0.000052   0.000001  -0.000013
    18  H   -0.029434  -0.029079   0.005835  -0.000000  -0.000000   0.000000
    19  H    0.511907  -0.025592  -0.000147   0.000000  -0.000000   0.000000
    20  H   -0.025592   0.579426  -0.000056  -0.000000  -0.000000  -0.000000
    21  H   -0.000147  -0.000056   0.374263  -0.000004  -0.000000  -0.000000
    22  H    0.000000  -0.000000  -0.000004   0.527551  -0.001462  -0.000061
    23  H   -0.000000  -0.000000  -0.000000  -0.001462   0.566206  -0.035369
    24  H    0.000000  -0.000000  -0.000000  -0.000061  -0.035369   0.570739
    25  H   -0.000000  -0.000000   0.000000  -0.000120   0.004031  -0.012223
    26  H    0.000000   0.000000   0.000000  -0.000115  -0.012029   0.005084
    27  H   -0.000000  -0.000000  -0.000000   0.000007  -0.000133  -0.000134
    28  H   -0.000000  -0.000001  -0.000172  -0.000137   0.000011   0.000015
              25         26         27         28
     1  C    0.000000  -0.000000   0.000001  -0.000022
     2  C   -0.000000   0.000000  -0.000001  -0.000207
     3  C   -0.000000   0.000000  -0.000000   0.000025
     4  N    0.000000   0.000000  -0.000001   0.007702
     5  S    0.000012   0.000009  -0.000022  -0.003149
     6  O    0.000000   0.000000   0.000000   0.000058
     7  O   -0.000000  -0.000000   0.000000   0.000291
     8  C    0.001218   0.001558   0.005915  -0.053511
     9  C    0.002404   0.001446   0.000141   0.006685
    10  C   -0.033150  -0.033284   0.004341  -0.000180
    11  C    0.369269   0.369242  -0.052141   0.006097
    12  C   -0.032512  -0.034039   0.363736  -0.044371
    13  C   -0.000494  -0.002291  -0.033645   0.365601
    14  H   -0.000000   0.000000  -0.000000  -0.000002
    15  H   -0.000001   0.000000  -0.000003   0.001021
    16  H    0.000000   0.000000  -0.000000   0.000003
    17  H    0.000000  -0.000000  -0.000000  -0.000096
    18  H    0.000000   0.000000  -0.000000  -0.000000
    19  H   -0.000000   0.000000  -0.000000  -0.000000
    20  H   -0.000000   0.000000  -0.000000  -0.000001
    21  H    0.000000   0.000000  -0.000000  -0.000172
    22  H   -0.000120  -0.000115   0.000007  -0.000137
    23  H    0.004031  -0.012029  -0.000133   0.000011
    24  H   -0.012223   0.005084  -0.000134   0.000015
    25  H    0.583906  -0.037766  -0.001216  -0.000151
    26  H   -0.037766   0.579835  -0.000087  -0.000166
    27  H   -0.001216  -0.000087   0.582007  -0.008162
    28  H   -0.000151  -0.000166  -0.008162   0.560625
 Mulliken charges:
               1
     1  C   -0.427660
     2  C    0.023634
     3  C   -0.450827
     4  N   -0.696043
     5  S    1.168062
     6  O   -0.533684
     7  O   -0.520460
     8  C   -0.113806
     9  C   -0.135240
    10  C   -0.316641
    11  C   -0.314040
    12  C   -0.111099
    13  C   -0.126295
    14  H    0.141645
    15  H    0.153289
    16  H    0.143633
    17  H    0.158979
    18  H    0.134985
    19  H    0.188692
    20  H    0.141687
    21  H    0.349416
    22  H    0.182561
    23  H    0.169313
    24  H    0.168918
    25  H    0.156791
    26  H    0.162601
    27  H    0.139396
    28  H    0.162194
 Sum of Mulliken charges =  -0.00000
 Mulliken charges with hydrogens summed into heavy atoms:
               1
     1  C    0.010908
     2  C    0.182613
     3  C    0.014537
     4  N   -0.346627
     5  S    1.168062
     6  O   -0.533684
     7  O   -0.520460
     8  C   -0.113806
     9  C    0.047321
    10  C    0.021589
    11  C    0.005352
    12  C    0.028297
    13  C    0.035898
 Electronic spatial extent (au):  <R**2>=           2966.0515
 Charge=              0.0000 electrons
 Dipole moment (field-independent basis, Debye):
    X=              1.9240    Y=              4.1012    Z=              1.5019  Tot=              4.7726
 Quadrupole moment (field-independent basis, Debye-Ang):
   XX=            -70.5229   YY=            -92.2039   ZZ=            -87.2513
   XY=             -2.3769   XZ=              4.2443   YZ=             -2.5901
 Traceless Quadrupole moment (field-independent basis, Debye-Ang):
   XX=             12.8031   YY=             -8.8778   ZZ=             -3.9252
   XY=             -2.3769   XZ=              4.2443   YZ=             -2.5901
 Octapole moment (field-independent basis, Debye-Ang**2):
  XXX=              3.5236  YYY=              4.3677  ZZZ=              4.8485  XYY=              8.2563
  XXY=              1.0798  XXZ=             -1.8547  XZZ=              0.7798  YZZ=              7.5820
  YYZ=              4.8310  XYZ=             -7.6616
 Hexadecapole moment (field-independent basis, Debye-Ang**3):
 XXXX=          -2395.9571 YYYY=           -928.5087 ZZZZ=           -508.0102 XXXY=             27.1724
 XXXZ=             46.3001 YYYX=              2.6817 YYYZ=             -7.0855 ZZZX=             11.9653
 ZZZY=             -9.3465 XXYY=           -560.3025 XXZZ=           -488.4616 YYZZ=           -242.2759
 XXYZ=              1.5311 YYXZ=             -2.1853 ZZXY=              2.4896
 N-N= 9.854288614028D+02 E-N=-4.211506780941D+03  KE= 9.486725719949D+02
 Calling FoFJK, ICntrl=      2127 FMM=F ISym2X=0 I1Cent= 0 IOpClX= 0 NMat=1 NMatS=1 NMatT=0.
 ***** Axes restored to original set *****
 -------------------------------------------------------------------
 Center     Atomic                   Forces (Hartrees/Bohr)
 Number     Number              X              Y              Z
 -------------------------------------------------------------------
      1        6           0.001941611   -0.000464741    0.008149265
      2        6          -0.003321559   -0.015502283   -0.008901484
      3        6           0.005976743    0.008093523   -0.007291553
      4        7           0.002339295    0.011539486    0.024851087
      5       16           0.002853621   -0.030442784   -0.014145698
      6        8           0.008770699    0.027999168   -0.013195893
      7        8          -0.021790458   -0.001772902    0.003010443
      8        6           0.016344694    0.013612189    0.004818740
      9        6          -0.001274043    0.000493818   -0.007860954
     10        6          -0.002126316   -0.000366145   -0.000614261
     11        6          -0.000641838   -0.001383743    0.005533472
     12        6          -0.000442114   -0.001884235   -0.006044224
     13        6          -0.005689553   -0.014606952    0.010916106
     14        1          -0.000111055    0.000458116   -0.001499247
     15        1          -0.000364972    0.000388613   -0.000483143
     16        1           0.000626843   -0.000490248   -0.001135994
     17        1          -0.006456353    0.002751284   -0.000132260
     18        1          -0.000103564   -0.002233837    0.001875386
     19        1          -0.001281667    0.000701692    0.001861242
     20        1           0.000771921   -0.001642866   -0.000388813
     21        1           0.000506098    0.003865574    0.002398087
     22        1           0.001011767   -0.003273450   -0.000706105
     23        1           0.001980536    0.001445275   -0.003002719
     24        1           0.000006856    0.001953790   -0.003726124
     25        1          -0.001151484    0.000223059    0.002875551
     26        1           0.000527100   -0.000711326    0.003031743
     27        1           0.000289181    0.000041194    0.000192626
     28        1           0.000808010    0.001208731   -0.000385277
 -------------------------------------------------------------------
 Cartesian Forces:  Max     0.030442784 RMS     0.007800166

 GradGradGradGradGradGradGradGradGradGradGradGradGradGradGradGradGradGrad
 Berny optimization.
 FormGI is forming the generalized inverse of G from B-inverse, IUseBI=4.
 Internal  Forces:  Max     0.030040988 RMS     0.005295989
 Search for a local minimum.
 Step number   1 out of a maximum of  158
 All quantities printed in internal units (Hartrees-Bohrs-Radians)
 Mixed Optimization -- RFO/linear search
 Second derivative matrix not updated -- first step.
 ITU=  0
     Eigenvalues ---    0.00400   0.00437   0.00440   0.00677   0.00908
     Eigenvalues ---    0.01235   0.01350   0.01445   0.01607   0.01733
     Eigenvalues ---    0.02031   0.02072   0.02303   0.03495   0.03526
     Eigenvalues ---    0.04454   0.04733   0.05389   0.05495   0.05503
     Eigenvalues ---    0.05567   0.05584   0.05678   0.05737   0.09737
     Eigenvalues ---    0.09847   0.09904   0.10004   0.10314   0.12484
     Eigenvalues ---    0.12766   0.13798   0.15997   0.15999   0.16000
     Eigenvalues ---    0.16000   0.16000   0.16000   0.16000   0.16000
     Eigenvalues ---    0.16000   0.16168   0.17442   0.19357   0.21947
     Eigenvalues ---    0.21970   0.22832   0.23500   0.24998   0.25000
     Eigenvalues ---    0.28068   0.29600   0.29641   0.29924   0.31124
     Eigenvalues ---    0.31901   0.33993   0.33996   0.34014   0.34038
     Eigenvalues ---    0.34140   0.34160   0.34167   0.34199   0.34219
     Eigenvalues ---    0.34247   0.34391   0.34945   0.35026   0.35104
     Eigenvalues ---    0.35186   0.36386   0.37512   0.44206   0.53640
     Eigenvalues ---    0.55652   0.96173   0.96513
 RFO step:  Lambda=-1.67300594D-02 EMin= 4.00116849D-03
 Linear search not attempted -- first point.
 Iteration  1 RMS(Cart)=  0.11422452 RMS(Int)=  0.00290177
 Iteration  2 RMS(Cart)=  0.00408224 RMS(Int)=  0.00105582
 Iteration  3 RMS(Cart)=  0.00000774 RMS(Int)=  0.00105582
 Iteration  4 RMS(Cart)=  0.00000004 RMS(Int)=  0.00105582
 Variable       Old X    -DE/DX   Delta X   Delta X   Delta X     New X
                                 (Linear)    (Quad)   (Total)
    R1        2.88685   0.00323   0.00000   0.01030   0.01030   2.89716
    R2        2.07095   0.00020   0.00000   0.00056   0.00056   2.07151
    R3        2.07050  -0.00036   0.00000  -0.00099  -0.00099   2.06951
    R4        2.06916   0.00076   0.00000   0.00211   0.00211   2.07127
    R5        2.88115   0.00468   0.00000   0.01482   0.01482   2.89597
    R6        2.79064  -0.00083   0.00000  -0.00226  -0.00226   2.78837
    R7        2.06995  -0.00080   0.00000  -0.00223  -0.00223   2.06772
    R8        2.07062   0.00101   0.00000   0.00281   0.00281   2.07342
    R9        2.06676  -0.00004   0.00000  -0.00010  -0.00010   2.06666
   R10        2.06962   0.00100   0.00000   0.00278   0.00278   2.07240
   R11        3.20482  -0.00694   0.00000  -0.01823  -0.01823   3.18659
   R12        1.92909  -0.00401   0.00000  -0.00874  -0.00874   1.92035
   R13        2.73769   0.02761   0.00000   0.02812   0.02812   2.76581
   R14        2.73912   0.02185   0.00000   0.02233   0.02233   2.76145
   R15        3.32469   0.00571   0.00000   0.01825   0.01825   3.34294
   R16        2.54371  -0.00619   0.00000  -0.01062  -0.01060   2.53311
   R17        2.73832   0.01088   0.00000   0.02779   0.02785   2.76617
   R18        2.83961   0.00044   0.00000   0.00083   0.00079   2.84040
   R19        2.05632  -0.00107   0.00000  -0.00292  -0.00292   2.05341
   R20        2.91174   0.01208   0.00000   0.03935   0.03929   2.95103
   R21        2.07307   0.00004   0.00000   0.00012   0.00012   2.07319
   R22        2.07337   0.00091   0.00000   0.00255   0.00255   2.07592
   R23        2.83881   0.00428   0.00000   0.01246   0.01244   2.85125
   R24        2.07265   0.00046   0.00000   0.00128   0.00128   2.07393
   R25        2.07341   0.00105   0.00000   0.00294   0.00294   2.07635
   R26        2.53374  -0.00310   0.00000  -0.00500  -0.00496   2.52878
   R27        2.05373   0.00012   0.00000   0.00033   0.00033   2.05406
   R28        2.05506  -0.00137   0.00000  -0.00374  -0.00374   2.05132
    A1        1.94499  -0.00195   0.00000  -0.01336  -0.01339   1.93160
    A2        1.93224  -0.00018   0.00000   0.00145   0.00144   1.93369
    A3        1.93536   0.00002   0.00000  -0.00007  -0.00011   1.93526
    A4        1.87624   0.00116   0.00000   0.00688   0.00688   1.88313
    A5        1.88811   0.00031   0.00000  -0.00290  -0.00296   1.88515
    A6        1.88456   0.00077   0.00000   0.00876   0.00875   1.89332
    A7        1.92377   0.00160   0.00000   0.03241   0.03129   1.95507
    A8        1.87739   0.00020   0.00000   0.01814   0.01667   1.89406
    A9        1.88767   0.00097   0.00000   0.00462   0.00489   1.89256
   A10        1.92684   0.00328   0.00000   0.03163   0.03046   1.95730
   A11        1.91977  -0.00138   0.00000  -0.01687  -0.01673   1.90304
   A12        1.92760  -0.00469   0.00000  -0.06961  -0.06928   1.85831
   A13        1.94420  -0.00303   0.00000  -0.02049  -0.02057   1.92363
   A14        1.94774  -0.00252   0.00000  -0.01177  -0.01184   1.93590
   A15        1.93200   0.00155   0.00000   0.00958   0.00960   1.94159
   A16        1.87446   0.00274   0.00000   0.01399   0.01384   1.88830
   A17        1.88542   0.00002   0.00000  -0.00468  -0.00467   1.88074
   A18        1.87709   0.00149   0.00000   0.01478   0.01480   1.89189
   A19        2.06933   0.00144   0.00000   0.00109   0.00093   2.07026
   A20        2.01213  -0.00001   0.00000  -0.00626  -0.00653   2.00560
   A21        1.91251  -0.00209   0.00000  -0.02135  -0.02152   1.89099
   A22        1.85295   0.02448   0.00000   0.12000   0.11520   1.96815
   A23        1.82058   0.00794   0.00000   0.03526   0.03098   1.85157
   A24        1.85471  -0.03004   0.00000  -0.12044  -0.11931   1.73540
   A25        2.09111  -0.00174   0.00000   0.01602   0.01020   2.10131
   A26        1.92649  -0.00749   0.00000  -0.05425  -0.05010   1.87639
   A27        1.90076   0.00407   0.00000  -0.00604  -0.00552   1.89523
   A28        2.07518  -0.00352   0.00000  -0.01372  -0.01382   2.06136
   A29        2.09870  -0.00453   0.00000  -0.01749  -0.01760   2.08110
   A30        2.10925   0.00805   0.00000   0.03097   0.03095   2.14020
   A31        2.14550  -0.00355   0.00000  -0.01576  -0.01579   2.12971
   A32        2.10536  -0.00091   0.00000  -0.00732  -0.00733   2.09803
   A33        2.03232   0.00446   0.00000   0.02306   0.02305   2.05538
   A34        2.02132   0.00025   0.00000   0.00138   0.00132   2.02264
   A35        1.89627  -0.00178   0.00000  -0.01128  -0.01136   1.88492
   A36        1.88696  -0.00230   0.00000  -0.02095  -0.02102   1.86594
   A37        1.89877   0.00270   0.00000   0.02478   0.02471   1.92348
   A38        1.90147   0.00259   0.00000   0.02207   0.02211   1.92358
   A39        1.85175  -0.00168   0.00000  -0.01831  -0.01883   1.83292
   A40        2.01497  -0.00111   0.00000  -0.00337  -0.00344   2.01153
   A41        1.90063   0.00170   0.00000   0.01191   0.01192   1.91256
   A42        1.90165   0.00213   0.00000   0.01854   0.01854   1.92018
   A43        1.89884  -0.00054   0.00000  -0.00516  -0.00511   1.89373
   A44        1.88794  -0.00043   0.00000  -0.00360  -0.00365   1.88430
   A45        1.85311  -0.00187   0.00000  -0.02015  -0.02027   1.83284
   A46        2.14446   0.00174   0.00000   0.00738   0.00739   2.15185
   A47        2.04944  -0.00110   0.00000  -0.00505  -0.00506   2.04438
   A48        2.08913  -0.00064   0.00000  -0.00245  -0.00247   2.08666
   A49        2.12486  -0.00539   0.00000  -0.02135  -0.02126   2.10359
   A50        2.05604   0.00229   0.00000   0.00841   0.00837   2.06441
   A51        2.10218   0.00310   0.00000   0.01299   0.01294   2.11512
    D1       -1.04985  -0.00141   0.00000  -0.01841  -0.01850  -1.06836
    D2        1.05180   0.00363   0.00000   0.05004   0.05021   1.10201
    D3        3.13396  -0.00129   0.00000  -0.01995  -0.02007   3.11389
    D4       -3.13716  -0.00147   0.00000  -0.01926  -0.01933   3.12669
    D5       -1.03551   0.00358   0.00000   0.04920   0.04938  -0.98612
    D6        1.04665  -0.00134   0.00000  -0.02080  -0.02090   1.02576
    D7        1.05457  -0.00233   0.00000  -0.03116  -0.03122   1.02334
    D8       -3.12697   0.00272   0.00000   0.03730   0.03749  -3.08947
    D9       -1.04480  -0.00220   0.00000  -0.03270  -0.03279  -1.07759
   D10        1.07693   0.00030   0.00000   0.00618   0.00650   1.08342
   D11       -3.11129  -0.00000   0.00000   0.00197   0.00238  -3.10891
   D12       -1.02127   0.00125   0.00000   0.01927   0.01963  -1.00164
   D13       -0.99472  -0.00300   0.00000  -0.05624  -0.05658  -1.05130
   D14        1.10025  -0.00330   0.00000  -0.06045  -0.06070   1.03954
   D15       -3.09292  -0.00205   0.00000  -0.04314  -0.04345  -3.13637
   D16       -3.12633   0.00163   0.00000   0.02150   0.02140  -3.10493
   D17       -1.03136   0.00133   0.00000   0.01729   0.01727  -1.01408
   D18        1.05866   0.00258   0.00000   0.03460   0.03453   1.09319
   D19        2.58612  -0.00092   0.00000  -0.01124  -0.01133   2.57479
   D20       -1.37966  -0.00266   0.00000  -0.05189  -0.05200  -1.43166
   D21       -1.59735   0.00306   0.00000   0.05782   0.05800  -1.53936
   D22        0.72005   0.00133   0.00000   0.01717   0.01733   0.73738
   D23        0.52964   0.00039   0.00000   0.01115   0.01110   0.54073
   D24        2.84704  -0.00135   0.00000  -0.02950  -0.02957   2.81747
   D25        0.82755  -0.01087   0.00000  -0.12010  -0.12442   0.70313
   D26        3.05208   0.00483   0.00000  -0.01629  -0.01373   3.03835
   D27       -1.22381   0.00035   0.00000  -0.05782  -0.05587  -1.27968
   D28       -1.53248  -0.01001   0.00000  -0.08737  -0.09182  -1.62429
   D29        0.69205   0.00570   0.00000   0.01644   0.01887   0.71092
   D30        2.69935   0.00122   0.00000  -0.02509  -0.02327   2.67608
   D31        2.36493   0.00337   0.00000  -0.00913  -0.00836   2.35658
   D32       -0.78826   0.00263   0.00000  -0.03212  -0.03093  -0.81919
   D33        0.36312  -0.00538   0.00000  -0.05800  -0.05955   0.30357
   D34       -2.79008  -0.00612   0.00000  -0.08100  -0.08212  -2.87220
   D35       -1.96616  -0.00027   0.00000  -0.02986  -0.02971  -1.99587
   D36        1.16383  -0.00101   0.00000  -0.05285  -0.05229   1.11154
   D37        3.13696  -0.00128   0.00000  -0.03336  -0.03351   3.10345
   D38       -0.00723  -0.00161   0.00000  -0.04415  -0.04425  -0.05149
   D39        0.00704  -0.00045   0.00000  -0.00989  -0.00978  -0.00274
   D40       -3.13715  -0.00077   0.00000  -0.02068  -0.02052   3.12552
   D41       -3.09191   0.00099   0.00000   0.02652   0.02669  -3.06521
   D42        0.03409   0.00113   0.00000   0.03018   0.03034   0.06443
   D43        0.03785   0.00015   0.00000   0.00277   0.00273   0.04058
   D44       -3.11934   0.00030   0.00000   0.00642   0.00638  -3.11296
   D45       -0.08606   0.00031   0.00000   0.00435   0.00422  -0.08184
   D46       -2.22835  -0.00201   0.00000  -0.02040  -0.02033  -2.24868
   D47        2.05246   0.00208   0.00000   0.01786   0.01761   2.07007
   D48        3.05803   0.00063   0.00000   0.01476   0.01475   3.07278
   D49        0.91574  -0.00169   0.00000  -0.00999  -0.00980   0.90594
   D50       -1.08663   0.00240   0.00000   0.02827   0.02814  -1.05849
   D51        0.11814   0.00019   0.00000   0.00756   0.00746   0.12560
   D52        2.25945   0.00003   0.00000   0.00771   0.00763   2.26708
   D53       -2.00964  -0.00011   0.00000   0.00028   0.00024  -2.00940
   D54        2.25912   0.00015   0.00000   0.01329   0.01320   2.27232
   D55       -1.88276  -0.00001   0.00000   0.01345   0.01337  -1.86939
   D56        0.13133  -0.00015   0.00000   0.00602   0.00598   0.13731
   D57       -2.01269   0.00102   0.00000   0.01683   0.01685  -1.99583
   D58        0.12862   0.00085   0.00000   0.01698   0.01702   0.14565
   D59        2.14272   0.00071   0.00000   0.00955   0.00963   2.15235
   D60       -0.08420  -0.00039   0.00000  -0.01441  -0.01441  -0.09861
   D61        3.07698  -0.00019   0.00000  -0.00736  -0.00731   3.06966
   D62       -2.22646  -0.00141   0.00000  -0.02364  -0.02364  -2.25010
   D63        0.93472  -0.00121   0.00000  -0.01659  -0.01654   0.91818
   D64        2.05091   0.00129   0.00000   0.00467   0.00459   2.05551
   D65       -1.07110   0.00150   0.00000   0.01172   0.01169  -1.05941
   D66        0.00521   0.00055   0.00000   0.01077   0.01086   0.01607
   D67       -3.12038   0.00041   0.00000   0.00707   0.00716  -3.11322
   D68        3.12679   0.00034   0.00000   0.00354   0.00357   3.13036
   D69        0.00120   0.00020   0.00000  -0.00016  -0.00013   0.00107
         Item               Value     Threshold  Converged?
 Maximum Force            0.030041     0.000450     NO 
 RMS     Force            0.005296     0.000300     NO 
 Maximum Displacement     0.436434     0.001800     NO 
 RMS     Displacement     0.114293     0.001200     NO 
 Predicted change in Energy=-9.713745D-03
 GradGradGradGradGradGradGradGradGradGradGradGradGradGradGradGradGradGrad

                          Input orientation:                          
 ---------------------------------------------------------------------
 Center     Atomic      Atomic             Coordinates (Angstroms)
 Number     Number       Type             X           Y           Z
 ---------------------------------------------------------------------
      1          6           0        1.070648    0.063430    0.102794
      2          6           0        0.532577    1.208377   -0.763232
      3          6           0        0.899159    1.032330   -2.240771
      4          7           0       -0.925670    1.304721   -0.559612
      5         16           0       -1.655309    2.822250   -0.650387
      6          8           0       -1.111371    3.648621   -1.728985
      7          8           0       -3.094154    2.586176   -0.553566
      8          6           0       -1.091907    3.506814    0.880409
      9          6           0       -0.624479    4.763131    0.876346
     10          6           0       -0.168681    5.448025    2.134284
     11          6           0       -0.378685    4.649570    3.459808
     12          6           0       -0.855157    3.228478    3.286611
     13          6           0       -1.191896    2.705939    2.101594
     14          1           0        0.642956   -0.895028   -0.213558
     15          1           0        0.810575    0.216901    1.155472
     16          1           0        2.161298   -0.008759    0.021352
     17          1           0        0.959449    2.147759   -0.399095
     18          1           0        0.448781    0.113299   -2.636256
     19          1           0        0.535537    1.874426   -2.836316
     20          1           0        1.985030    0.957107   -2.374560
     21          1           0       -1.478430    0.650794   -1.106884
     22          1           0       -0.553283    5.316966   -0.055819
     23          1           0       -0.674062    6.419984    2.193245
     24          1           0        0.894915    5.687880    2.000116
     25          1           0        0.557074    4.635743    4.033060
     26          1           0       -1.099256    5.172449    4.103735
     27          1           0       -0.945490    2.622965    4.184764
     28          1           0       -1.555518    1.686422    2.019711
 ---------------------------------------------------------------------
                    Distance matrix (angstroms):
                    1          2          3          4          5
     1  C    0.000000
     2  C    1.533109   0.000000
     3  C    2.541745   1.532480   0.000000
     4  N    2.442308   1.475544   2.496095   0.000000
     5  S    3.950849   2.721060   3.501205   1.686270   0.000000
     6  O    4.579324   3.096779   3.339032   2.625983   1.463602
     7  O    4.913311   3.885289   4.605176   2.518826   1.461294
     8  C    4.139833   3.259343   4.452996   2.636382   1.769007
     9  C    5.055594   4.082067   5.094778   3.756766   2.675920
    10  C    5.886998   5.182854   6.307118   4.999708   4.105990
    11  C    5.865389   5.523248   6.871237   5.257656   4.675743
    12  C    4.884971   4.733692   6.201019   4.301075   4.037972
    13  C    4.012127   3.663841   5.101922   3.019323   2.793149
    14  H    1.096194   2.176841   2.808904   2.723827   4.392151
    15  H    1.095136   2.177552   3.493885   2.671968   4.016162
    16  H    1.096067   2.179386   2.791785   3.404720   4.799201
    17  H    2.146784   1.094191   2.153970   2.071268   2.712019
    18  H    2.809199   2.171276   1.097209   2.760625   3.963494
    19  H    3.493481   2.177454   1.093627   2.764610   3.236736
    20  H    2.787837   2.183835   1.096665   3.447760   4.438874
    21  H    2.882033   2.114982   2.661616   1.016204   2.225960
    22  H    5.501086   4.308135   5.024112   4.060860   2.791340
    23  H    6.915184   6.112085   7.152785   5.814417   4.689646
    24  H    5.938446   5.275730   6.297561   5.392478   4.662687
    25  H    6.051181   5.895070   7.243104   5.864032   5.487994
    26  H    6.842375   6.485686   7.834986   6.061045   5.332383
    27  H    5.222883   5.354288   6.871706   4.924151   4.891037
    28  H    3.633927   3.511900   4.960341   2.682408   2.903358
                    6          7          8          9         10
     6  O    0.000000
     7  O    2.538076   0.000000
     8  C    2.613317   2.629231   0.000000
     9  C    2.875230   3.589301   1.340462   0.000000
    10  C    4.364787   4.896234   2.488543   1.503076   0.000000
    11  C    5.335007   5.266738   2.909961   2.597612   1.561617
    12  C    5.039680   4.491394   2.433789   2.866662   2.593356
    13  C    3.945691   3.268456   1.463794   2.460739   2.926956
    14  H    5.100875   5.118630   4.856205   5.899919   6.812153
    15  H    4.877568   4.876596   3.810332   4.775511   5.411255
    16  H    5.210612   5.889312   4.866269   5.591288   6.298394
    17  H    2.882619   4.080168   2.773485   3.312967   4.310735
    18  H    3.969347   4.796364   5.124119   5.925471   7.183217
    19  H    2.662002   4.346515   4.373477   4.845008   6.162255
    20  H    4.153157   5.636311   5.153967   5.644798   6.718370
    21  H    3.083619   2.581168   3.500798   4.644755   5.935827
    22  H    2.427822   3.763109   2.107911   1.086615   2.227475
    23  H    4.822404   5.300934   3.222529   2.117036   1.097083
    24  H    4.699996   5.661672   3.155670   2.103943   1.098530
    25  H    6.079415   6.210421   3.732670   3.373001   2.189035
    26  H    6.028501   5.688486   3.628254   3.287704   2.195598
    27  H    6.004325   5.202872   3.423651   3.953352   3.576152
    28  H    4.254435   3.130289   2.196992   3.411782   4.010748
                   11         12         13         14         15
    11  C    0.000000
    12  C    1.508815   0.000000
    13  C    2.506742   1.338172   0.000000
    14  H    6.729036   5.612381   4.657636   0.000000
    15  H    5.135451   4.047964   3.331719   1.771644   0.000000
    16  H    6.322540   5.499147   4.789666   1.773702   1.778089
    17  H    4.789655   4.247961   3.345639   3.064824   2.483355
    18  H    7.643589   6.817987   5.644540   2.631330   3.810358
    19  H    6.941066   6.423217   5.297017   3.815792   4.330982
    20  H    7.298033   6.728644   5.760836   3.146665   3.793201
    21  H    6.168819   5.131834   3.821002   2.772701   3.247470
    22  H    3.582672   3.952815   3.446697   6.328091   5.416456
    23  H    2.196769   3.378454   3.751090   7.812594   6.462148
    24  H    2.197919   3.281231   3.641023   6.949713   5.536438
    25  H    1.097476   2.128844   3.242468   6.973562   5.279294
    26  H    1.098757   2.122805   3.178179   7.647784   6.074304
    27  H    2.225748   1.086962   2.099332   5.851894   4.248473
    28  H    3.498436   2.115060   1.085514   4.060131   2.916300
                   16         17         18         19         20
    16  H    0.000000
    17  H    2.504353   0.000000
    18  H    3.163937   3.066709   0.000000
    19  H    3.788898   2.488867   1.774576   0.000000
    20  H    2.589279   2.524269   1.772162   1.776436   0.000000
    21  H    3.867240   2.947054   2.518337   2.923059   3.700863
    22  H    5.978148   3.528465   5.894144   4.557167   5.552294
    23  H    7.354258   5.257422   8.022414   6.886342   7.601226
    24  H    6.162055   4.277012   7.264361   6.169494   6.535010
    25  H    6.343401   5.098624   8.058785   7.403624   7.525226
    26  H    7.358123   5.801939   8.568483   7.855814   8.321673
    27  H    5.823409   4.986619   7.400590   7.214521   7.374806
    28  H    4.547725   3.519732   5.307539   5.290449   5.690080
                   21         22         23         24         25
    21  H    0.000000
    22  H    4.871734   0.000000
    23  H    6.694880   2.507893   0.000000
    24  H    6.376398   2.541993   1.742115   0.000000
    25  H    6.814846   4.291374   2.843260   2.313868   0.000000
    26  H    6.909391   4.197721   2.321014   2.944079   1.742550
    27  H    5.672303   5.039247   4.296181   4.189687   2.516344
    28  H    3.294551   4.300366   4.818058   4.692192   4.149110
                   26         27         28
    26  H    0.000000
    27  H    2.555402   0.000000
    28  H    4.087018   2.436534   0.000000
 Stoichiometry    C9H15NO2S
 Framework group  C1[X(C9H15NO2S)]
 Deg. of freedom    78
 Full point group                 C1      NOp   1
 Largest Abelian subgroup         C1      NOp   1
 Largest concise Abelian subgroup C1      NOp   1
                         Standard orientation:                         
 ---------------------------------------------------------------------
 Center     Atomic      Atomic             Coordinates (Angstroms)
 Number     Number       Type             X           Y           Z
 ---------------------------------------------------------------------
      1          6           0       -2.126899    2.447668   -0.191425
      2          6           0       -1.991901    1.034593    0.387727
      3          6           0       -3.275275    0.575878    1.088459
      4          7           0       -1.593551    0.118888   -0.698565
      5         16           0       -0.607184   -1.196762   -0.324862
      6          8           0       -0.971645   -1.836667    0.939978
      7          8           0       -0.503895   -1.986338   -1.550130
      8          6           0        0.923903   -0.348064   -0.070162
      9          6           0        1.660936   -0.682093    0.998504
     10          6           0        2.997769   -0.052254    1.273126
     11          6           0        3.526433    0.929517    0.179834
     12          6           0        2.550751    1.246743   -0.926482
     13          6           0        1.357804    0.652468   -1.046562
     14          1           0       -2.923709    2.483199   -0.943404
     15          1           0       -1.194867    2.760827   -0.673679
     16          1           0       -2.370936    3.170698    0.595364
     17          1           0       -1.170705    1.033990    1.110839
     18          1           0       -4.104489    0.533457    0.371191
     19          1           0       -3.148446   -0.419669    1.522995
     20          1           0       -3.560528    1.269124    1.888906
     21          1           0       -2.357145   -0.209663   -1.283073
     22          1           0        1.293825   -1.419759    1.706890
     23          1           0        3.723495   -0.857421    1.442298
     24          1           0        2.915258    0.464219    2.239156
     25          1           0        3.837631    1.870926    0.650323
     26          1           0        4.439285    0.525261   -0.279021
     27          1           0        2.861492    1.979835   -1.666416
     28          1           0        0.692835    0.888249   -1.871525
 ---------------------------------------------------------------------
 Rotational constants (GHZ):           1.0260873           0.5104704           0.4361251
 Standard basis: 6-31G(d) (6D, 7F)
 There are   229 symmetry adapted cartesian basis functions of A   symmetry.
 There are   229 symmetry adapted basis functions of A   symmetry.
   229 basis functions,   448 primitive gaussians,   229 cartesian basis functions
    54 alpha electrons       54 beta electrons
       nuclear repulsion energy       988.1756026919 Hartrees.
 NAtoms=   28 NActive=   28 NUniq=   28 SFac= 1.00D+00 NAtFMM=   60 NAOKFM=F Big=F
 Integral buffers will be    131072 words long.
 Raffenetti 2 integral format.
 Two-electron integral symmetry is turned on.
 Nuclear repulsion after empirical dispersion term =      988.1193913274 Hartrees.
 One-electron integrals computed using PRISM.
 NBasis=   229 RedAO= T EigKep=  9.70D-04  NBF=   229
 NBsUse=   229 1.00D-06 EigRej= -1.00D+00 NBFU=   229
 Initial guess from the checkpoint file:  "JID_3305.chk"
 B after Tr=     0.000000   -0.000000    0.000000
         Rot=    0.999845    0.013346    0.001773    0.011343 Ang=   2.02 deg.
 ExpMin= 1.17D-01 ExpMax= 2.19D+04 ExpMxC= 3.30D+03 IAcc=2 IRadAn=         4 AccDes= 0.00D+00
 Harris functional with IExCor=  402 and IRadAn=       4 diagonalized for initial guess.
 HarFok:  IExCor=  402 AccDes= 0.00D+00 IRadAn=         4 IDoV= 1 UseB2=F ITyADJ=14
 ICtDFT=  3500011 ScaDFX=  1.000000  1.000000  1.000000  1.000000
 FoFCou: FMM=F IPFlag=           0 FMFlag=      100000 FMFlg1=           0
         NFxFlg=           0 DoJE=T BraDBF=F KetDBF=T FulRan=T
         wScrn=  0.000000 ICntrl=       500 IOpCl=  0 I1Cent=   200000004 NGrid=           0
         NMat0=    1 NMatS0=      1 NMatT0=    0 NMatD0=    1 NMtDS0=    0 NMtDT0=    0
 Petite list used in FoFCou.
 Keep R1 ints in memory in canonical form, NReq=352864346.
 Requested convergence on RMS density matrix=1.00D-08 within  32 cycles.
 Requested convergence on MAX density matrix=1.00D-06.
 Requested convergence on             energy=1.00D-06.
 No special actions if energy rises.
 Integral accuracy reduced to 1.0D-05 until final iterations.
 Initial convergence to 1.0D-05 achieved.  Increase integral accuracy.
 SCF Done:  E(RB3LYP) =  -955.336953277     A.U. after   13 cycles
            NFock= 13  Conv=0.31D-08     -V/T= 2.0072
 QCSCF skips out because SCF is already converged.
 Calling FoFJK, ICntrl=      2127 FMM=F ISym2X=0 I1Cent= 0 IOpClX= 0 NMat=1 NMatS=1 NMatT=0.
 ***** Axes restored to original set *****
 -------------------------------------------------------------------
 Center     Atomic                   Forces (Hartrees/Bohr)
 Number     Number              X              Y              Z
 -------------------------------------------------------------------
[...]
   193    C    9  px     Ryd( 5p)     0.00005       3.15141
   194    C    9  py     Val( 2p)     0.44184       0.07973
   195    C    9  py     Ryd( 4p)     0.00137       0.79091
   196    C    9  py     Ryd( 3p)     0.00016       0.70220
   197    C    9  py     Ryd( 5p)     0.00002       2.98241
   198    C    9  pz     Val( 2p)     0.56756       0.09358
   199    C    9  pz     Ryd( 4p)     0.00218       0.94648
   200    C    9  pz     Ryd( 3p)     0.00020       0.80590
   201    C    9  pz     Ryd( 5p)     0.00006       3.20412
   202    C    9  dxy    Ryd( 3d)     0.00032       2.18724
   203    C    9  dxz    Ryd( 3d)     0.00036       2.47431
   204    C    9  dyz    Ryd( 3d)     0.00036       2.06872
   205    C    9  dx2y2  Ryd( 3d)     0.00021       1.95909
   206    C    9  dz2    Ryd( 3d)     0.00029       2.54234
 
   207    C   10  S      Cor( 1S)     0.99963      -9.90581
   208    C   10  S      Val( 2S)     0.51039      -0.09161
   209    C   10  S      Ryd( 3S)     0.00173       0.64302
   210    C   10  S      Ryd( 4S)     0.00035       1.13784
   211    C   10  S      Ryd( 5S)     0.00001      23.43247
   212    C   10  px     Val( 2p)     0.54737       0.05356
   213    C   10  px     Ryd( 4p)     0.00115       0.73330
   214    C   10  px     Ryd( 3p)     0.00008       0.58690
   215    C   10  px     Ryd( 5p)     0.00006       3.14616
   216    C   10  py     Val( 2p)     0.58362       0.04628
   217    C   10  py     Ryd( 4p)     0.00074       0.76535
   218    C   10  py     Ryd( 3p)     0.00009       0.57579
   219    C   10  py     Ryd( 5p)     0.00005       3.10930
   220    C   10  pz     Val( 2p)     0.55498       0.04684
   221    C   10  pz     Ryd( 4p)     0.00189       0.75651
   222    C   10  pz     Ryd( 3p)     0.00007       0.58979
   223    C   10  pz     Ryd( 5p)     0.00005       3.14305
   224    C   10  dxy    Ryd( 3d)     0.00038       2.23295
   225    C   10  dxz    Ryd( 3d)     0.00043       2.37238
   226    C   10  dyz    Ryd( 3d)     0.00021       2.08493
   227    C   10  dx2y2  Ryd( 3d)     0.00039       2.17990
   228    C   10  dz2    Ryd( 3d)     0.00037       2.25746
 
   229    C   11  S      Cor( 1S)     0.99963      -9.90432
   230    C   11  S      Val( 2S)     0.51043      -0.09282
   231    C   11  S      Ryd( 3S)     0.00235       0.86841
   232    C   11  S      Ryd( 4S)     0.00021       1.55986
   233    C   11  S      Ryd( 5S)     0.00001      22.99493
   234    C   11  px     Val( 2p)     0.56600       0.04452
   235    C   11  px     Ryd( 3p)     0.00150       0.69988
   236    C   11  px     Ryd( 4p)     0.00011       0.86803
   237    C   11  px     Ryd( 5p)     0.00003       2.86978
   238    C   11  py     Val( 2p)     0.59270       0.04884
   239    C   11  py     Ryd( 3p)     0.00130       0.84493
   240    C   11  py     Ryd( 4p)     0.00013       1.07549
   241    C   11  py     Ryd( 5p)     0.00002       2.58238
   242    C   11  pz     Val( 2p)     0.52616       0.05373
   243    C   11  pz     Ryd( 3p)     0.00089       0.72750
   244    C   11  pz     Ryd( 4p)     0.00011       0.84090
   245    C   11  pz     Ryd( 5p)     0.00005       2.80426
   246    C   11  dxy    Ryd( 3d)     0.00053       2.36777
   247    C   11  dxz    Ryd( 3d)     0.00040       2.40202
   248    C   11  dyz    Ryd( 3d)     0.00018       1.95296
   249    C   11  dx2y2  Ryd( 3d)     0.00018       2.06475
   250    C   11  dz2    Ryd( 3d)     0.00048       2.34362
 
   251    C   12  S      Cor( 1S)     0.99955      -9.87436
   252    C   12  S      Val( 2S)     0.46706      -0.01059
   253    C   12  S      Ryd( 3S)     0.00211       0.80836
   254    C   12  S      Ryd( 4S)     0.00027       1.02663
   255    C   12  S      Ryd( 5S)     0.00001      23.20343
   256    C   12  px     Val( 2p)     0.53145       0.10127
   257    C   12  px     Ryd( 4p)     0.00227       0.74685
   258    C   12  px     Ryd( 3p)     0.00025       0.70836
   259    C   12  px     Ryd( 5p)     0.00007       3.19663
   260    C   12  py     Val( 2p)     0.49588       0.06159
   261    C   12  py     Ryd( 3p)     0.00146       0.62834
   262    C   12  py     Ryd( 4p)     0.00023       0.71550
   263    C   12  py     Ryd( 5p)     0.00002       2.83674
   264    C   12  pz     Val( 2p)     0.53457       0.10208
   265    C   12  pz     Ryd( 4p)     0.00211       0.97787
   266    C   12  pz     Ryd( 3p)     0.00042       0.87930
   267    C   12  pz     Ryd( 5p)     0.00003       2.97593
   268    C   12  dxy    Ryd( 3d)     0.00040       2.11391
   269    C   12  dxz    Ryd( 3d)     0.00030       2.46808
   270    C   12  dyz    Ryd( 3d)     0.00017       2.01241
   271    C   12  dx2y2  Ryd( 3d)     0.00027       2.24451
   272    C   12  dz2    Ryd( 3d)     0.00031       2.34272
 
   273    C   13  S      Cor( 1S)     0.99949      -9.87672
   274    C   13  S      Val( 2S)     0.46903      -0.00232
   275    C   13  S      Ryd( 4S)     0.00133       0.95400
   276    C   13  S      Ryd( 3S)     0.00029       0.83518
   277    C   13  S      Ryd( 5S)     0.00001      23.10555
   278    C   13  px     Val( 2p)     0.56081       0.08410
   279    C   13  px     Ryd( 4p)     0.00238       1.07619
   280    C   13  px     Ryd( 3p)     0.00009       0.72625
   281    C   13  px     Ryd( 5p)     0.00008       3.25925
   282    C   13  py     Val( 2p)     0.51994       0.05225
   283    C   13  py     Ryd( 4p)     0.00187       0.76295
   284    C   13  py     Ryd( 3p)     0.00028       0.55441
   285    C   13  py     Ryd( 5p)     0.00003       2.95771
   286    C   13  pz     Val( 2p)     0.55964       0.09362
   287    C   13  pz     Ryd( 4p)     0.00292       1.10756
   288    C   13  pz     Ryd( 3p)     0.00010       0.83009
   289    C   13  pz     Ryd( 5p)     0.00003       3.04953
   290    C   13  dxy    Ryd( 3d)     0.00030       2.11018
   291    C   13  dxz    Ryd( 3d)     0.00040       2.47914
   292    C   13  dyz    Ryd( 3d)     0.00017       2.01981
   293    C   13  dx2y2  Ryd( 3d)     0.00031       2.25399
   294    C   13  dz2    Ryd( 3d)     0.00028       2.38420
 
   295    H   14  S      Val( 1S)     0.40298       0.13066
   296    H   14  S      Ryd( 2S)     0.00053       0.31755
   297    H   14  S      Ryd( 4S)     0.00035       1.31650
   298    H   14  S      Ryd( 3S)     0.00004       1.29810
   299    H   14  px     Ryd( 2p)     0.00009       2.27792
   300    H   14  py     Ryd( 2p)     0.00007       1.89588
   301    H   14  pz     Ryd( 2p)     0.00011       2.43996
 
   302    H   15  S      Val( 1S)     0.39241       0.15360
   303    H   15  S      Ryd( 2S)     0.00059       0.55105
   304    H   15  S      Ryd( 4S)     0.00031       1.42917
   305    H   15  S      Ryd( 3S)     0.00003       1.13768
   306    H   15  px     Ryd( 2p)     0.00012       2.54113
   307    H   15  py     Ryd( 2p)     0.00006       2.06077
   308    H   15  pz     Ryd( 2p)     0.00007       1.98912
 
   309    H   16  S      Val( 1S)     0.40180       0.13327
   310    H   16  S      Ryd( 2S)     0.00028       0.36818
   311    H   16  S      Ryd( 3S)     0.00025       1.10241
   312    H   16  S      Ryd( 4S)     0.00003       1.51033
   313    H   16  px     Ryd( 2p)     0.00008       2.03791
   314    H   16  py     Ryd( 2p)     0.00010       2.26781
   315    H   16  pz     Ryd( 2p)     0.00010       2.23074
 
   316    H   17  S      Val( 1S)     0.39547       0.15445
   317    H   17  S      Ryd( 3S)     0.00188       1.71919
   318    H   17  S      Ryd( 2S)     0.00027       1.31976
   319    H   17  S      Ryd( 4S)     0.00016       2.42820
   320    H   17  px     Ryd( 2p)     0.00014       2.33515
   321    H   17  py     Ryd( 2p)     0.00008       2.02316
   322    H   17  pz     Ryd( 2p)     0.00016       2.44701
 
   323    H   18  S      Val( 1S)     0.40544       0.13068
   324    H   18  S      Ryd( 2S)     0.00054       0.35982
   325    H   18  S      Ryd( 4S)     0.00036       1.33331
   326    H   18  S      Ryd( 3S)     0.00005       1.28494
   327    H   18  px     Ryd( 2p)     0.00010       2.35024
   328    H   18  py     Ryd( 2p)     0.00006       1.93296
   329    H   18  pz     Ryd( 2p)     0.00010       2.32844
 
   330    H   19  S      Val( 1S)     0.38545       0.16859
   331    H   19  S      Ryd( 2S)     0.00048       0.53159
   332    H   19  S      Ryd( 4S)     0.00033       1.42762
   333    H   19  S      Ryd( 3S)     0.00004       1.28458
   334    H   19  px     Ryd( 2p)     0.00009       1.92423
   335    H   19  py     Ryd( 2p)     0.00012       2.59094
   336    H   19  pz     Ryd( 2p)     0.00007       2.11321
 
   337    H   20  S      Val( 1S)     0.40297       0.13379
   338    H   20  S      Ryd( 2S)     0.00015       0.45411
   339    H   20  S      Ryd( 3S)     0.00026       1.27790
   340    H   20  S      Ryd( 4S)     0.00004       1.32486
   341    H   20  px     Ryd( 2p)     0.00009       2.01410
   342    H   20  py     Ryd( 2p)     0.00010       2.19833
   343    H   20  pz     Ryd( 2p)     0.00010       2.33150
 
   344    H   21  S      Val( 1S)     0.30666       0.17993
   345    H   21  S      Ryd( 2S)     0.00093       0.79566
   346    H   21  S      Ryd( 4S)     0.00032       1.60113
   347    H   21  S      Ryd( 3S)     0.00007       1.15259
   348    H   21  px     Ryd( 2p)     0.00025       2.22280
   349    H   21  py     Ryd( 2p)     0.00033       2.05634
   350    H   21  pz     Ryd( 2p)     0.00024       2.32139
 
   351    H   22  S      Val( 1S)     0.39941       0.20016
   352    H   22  S      Ryd( 2S)     0.00054       0.53003
   353    H   22  S      Ryd( 4S)     0.00029       1.94642
   354    H   22  S      Ryd( 3S)     0.00007       1.03182
   355    H   22  px     Ryd( 2p)     0.00014       2.15268
   356    H   22  py     Ryd( 2p)     0.00013       1.99486
   357    H   22  pz     Ryd( 2p)     0.00017       2.58100
 
   358    H   23  S      Val( 1S)     0.40251       0.16117
   359    H   23  S      Ryd( 2S)     0.00055       0.62700
   360    H   23  S      Ryd( 3S)     0.00015       0.87797
   361    H   23  S      Ryd( 4S)     0.00007       1.92045
   362    H   23  px     Ryd( 2p)     0.00011       2.15386
   363    H   23  py     Ryd( 2p)     0.00008       2.03667
   364    H   23  pz     Ryd( 2p)     0.00012       2.49997
 
   365    H   24  S      Val( 1S)     0.39845       0.15510
   366    H   24  S      Ryd( 2S)     0.00087       0.40064
   367    H   24  S      Ryd( 3S)     0.00038       0.70084
   368    H   24  S      Ryd( 4S)     0.00014       2.33577
   369    H   24  px     Ryd( 2p)     0.00010       1.96200
   370    H   24  py     Ryd( 2p)     0.00016       2.73070
   371    H   24  pz     Ryd( 2p)     0.00010       2.06420
 
   372    H   25  S      Val( 1S)     0.40441       0.15406
   373    H   25  S      Ryd( 2S)     0.00074       0.27286
   374    H   25  S      Ryd( 3S)     0.00079       0.57935
   375    H   25  S      Ryd( 4S)     0.00019       2.39588
   376    H   25  px     Ryd( 2p)     0.00014       2.43601
   377    H   25  py     Ryd( 2p)     0.00012       2.35295
   378    H   25  pz     Ryd( 2p)     0.00009       1.87718
 
   379    H   26  S      Val( 1S)     0.40247       0.15941
   380    H   26  S      Ryd( 2S)     0.00060       0.49922
   381    H   26  S      Ryd( 3S)     0.00055       0.88850
   382    H   26  S      Ryd( 4S)     0.00015       1.89302
   383    H   26  px     Ryd( 2p)     0.00011       2.23492
   384    H   26  py     Ryd( 2p)     0.00012       2.61461
   385    H   26  pz     Ryd( 2p)     0.00010       1.91048
 
   386    H   27  S      Val( 1S)     0.41348       0.17842
   387    H   27  S      Ryd( 2S)     0.00010       0.37047
   388    H   27  S      Ryd( 4S)     0.00036       1.40123
   389    H   27  S      Ryd( 3S)     0.00005       1.35325
   390    H   27  px     Ryd( 2p)     0.00009       2.20292
   391    H   27  py     Ryd( 2p)     0.00015       1.92436
   392    H   27  pz     Ryd( 2p)     0.00019       2.52365
 
   393    H   28  S      Val( 1S)     0.39643       0.19895
   394    H   28  S      Ryd( 2S)     0.00049       0.76074
   395    H   28  S      Ryd( 4S)     0.00020       1.80259
   396    H   28  S      Ryd( 3S)     0.00004       0.90436
   397    H   28  px     Ryd( 2p)     0.00014       2.32840
   398    H   28  py     Ryd( 2p)     0.00012       1.84442
   399    H   28  pz     Ryd( 2p)     0.00019       2.57708

 WARNING:  Population inversion found on atom  C    2
           Population inversion found on atom  S    5
           Population inversion found on atom  O    6
           Population inversion found on atom  O    7
           Population inversion found on atom  C    8
           Population inversion found on atom  C    9
           Population inversion found on atom  C   10
           Population inversion found on atom  C   12
           Population inversion found on atom  C   13
           Population inversion found on atom  H   14
           Population inversion found on atom  H   15
           Population inversion found on atom  H   17
           Population inversion found on atom  H   18
           Population inversion found on atom  H   19
           Population inversion found on atom  H   20
           Population inversion found on atom  H   21
           Population inversion found on atom  H   22
           Population inversion found on atom  H   25
           Population inversion found on atom  H   27
           Population inversion found on atom  H   28


 Summary of Natural Population Analysis:                  
                                                          
                                       Natural Population 
                Natural  -----------------------------------------------
    Atom  No    Charge         Core      Valence    Rydberg      Total
 -----------------------------------------------------------------------
      C    1   -0.28542      0.99964     2.27930    0.00647     3.28542
      C    2   -0.02230      0.99962     2.01049    0.01219     3.02230
      C    3   -0.29434      0.99964     2.28895    0.00575     3.29434
      N    4   -0.43817      0.99974     2.92481    0.01362     3.93817
      S    5    1.10871      4.99915     1.79152    0.10061     6.89129
      O    6   -0.47705      0.99991     3.47170    0.00544     4.47705
      O    7   -0.47143      0.99991     3.46646    0.00507     4.47143
      C    8   -0.15325      0.99932     2.13873    0.01521     3.15325
      C    9    0.03114      0.99947     1.95975    0.00965     2.96886
      C   10   -0.20404      0.99963     2.19636    0.00805     3.20404
      C   11   -0.20342      0.99963     2.19529    0.00849     3.20342
      C   12   -0.03922      0.99955     2.02895    0.01071     3.03922
      C   13   -0.11976      0.99949     2.10942    0.01085     3.11976
      H   14    0.09584      0.00000     0.40298    0.00119     0.40416
      H   15    0.10641      0.00000     0.39241    0.00118     0.39359
      H   16    0.09736      0.00000     0.40180    0.00085     0.40264
      H   17    0.10184      0.00000     0.39547    0.00269     0.39816
      H   18    0.09335      0.00000     0.40544    0.00121     0.40665
      H   19    0.11341      0.00000     0.38545    0.00113     0.38659
      H   20    0.09629      0.00000     0.40297    0.00073     0.40371
      H   21    0.19121      0.00000     0.30666    0.00213     0.30879
      H   22    0.09926      0.00000     0.39941    0.00133     0.40074
      H   23    0.09642      0.00000     0.40251    0.00107     0.40358
      H   24    0.09979      0.00000     0.39845    0.00175     0.40021
      H   25    0.09353      0.00000     0.40441    0.00207     0.40647
      H   26    0.09589      0.00000     0.40247    0.00164     0.40411
      H   27    0.08557      0.00000     0.41348    0.00095     0.41443
      H   28    0.10239      0.00000     0.39643    0.00118     0.39761
 =======================================================================
   * Total *   -0.00000     16.99472    36.77207    0.23321    54.00000

                                 Natural Population      
 --------------------------------------------------------
   Core                      16.99472 ( 99.9689% of  17)
   Valence                   36.77207 ( 99.3840% of  37)
   Natural Minimal Basis     53.76679 ( 99.5681% of  54)
   Natural Rydberg Basis      0.23321 (  0.4319% of  54)
 --------------------------------------------------------

    Atom  No          Natural Electron Configuration
 ----------------------------------------------------------------------------
      C    1      [core]2S( 0.54)2p( 1.74)
      C    2      [core]2S( 0.48)2p( 1.53)3p( 0.01)
      C    3      [core]2S( 0.54)2p( 1.75)
      N    4      [core]2S( 0.71)2p( 2.21)3p( 0.01)
      S    5      [core]3S( 0.53)3p( 1.27)3d( 0.08)5p( 0.01)6p( 0.01)
      O    6      [core]2S( 0.91)2p( 2.56)
      O    7      [core]2S( 0.91)2p( 2.55)
      C    8      [core]2S( 0.48)2p( 1.66)4p( 0.01)
      C    9      [core]2S( 0.46)2p( 1.50)4p( 0.01)
      C   10      [core]2S( 0.51)2p( 1.69)
      C   11      [core]2S( 0.51)2p( 1.68)
      C   12      [core]2S( 0.47)2p( 1.56)
      C   13      [core]2S( 0.47)2p( 1.64)4p( 0.01)
      H   14            1S( 0.40)
      H   15            1S( 0.39)
      H   16            1S( 0.40)
      H   17            1S( 0.40)
      H   18            1S( 0.41)
      H   19            1S( 0.39)
      H   20            1S( 0.40)
      H   21            1S( 0.31)
      H   22            1S( 0.40)
      H   23            1S( 0.40)
      H   24            1S( 0.40)
      H   25            1S( 0.40)
      H   26            1S( 0.40)
      H   27            1S( 0.41)
      H   28            1S( 0.40)


 NBO analysis skipped by request.
 1\1\GINC-NODE226\SP\UB3LYP\6-311++G(d,p)\C9H15N1O2S1(1-,2)\VSC10255\09
 -Dec-2020\0\\# B3LYP/6-311++G(d,p) empiricaldispersion=gd3bj scf=xqc p
 op=npa geom=check\\CID_147867702_JID_3305_Energie_anion\\-1,2\C,0,1.35
 25957988,0.0748317648,-0.183663134\C,0,0.6243508581,1.2031928665,-0.91
 53002813\C,0,0.6899245491,1.0548541007,-2.4375376116\N,0,-0.7643151214
 ,1.2550999461,-0.4099785644\S,0,-1.5986358324,2.7169372406,-0.47528142
 6\O,0,-1.1446732203,3.5598993537,-1.5903779588\O,0,-3.0116286553,2.344
 3790573,-0.3477677885\C,0,-1.0361323955,3.4709816619,1.0389691585\C,0,
 -0.3754062963,4.6374943146,0.9876847772\C,0,0.121099766,5.2579548904,2
 .268663388\C,0,-0.7800641828,4.9090985931,3.465869071\C,0,-1.196871186
 8,3.4570035007,3.4553196892\C,0,-1.3363625948,2.7893131767,2.301017379
 8\H,0,0.895426317,-0.8953831819,-0.4143517873\H,0,1.3082700991,0.22447
 50398,0.8989144061\H,0,2.4021859958,0.0313617644,-0.4939743996\H,0,1.0
 79682349,2.1578854978,-0.6284913258\H,0,0.2231144059,0.1116492553,-2.7
 501135861\H,0,0.1701439408,1.882478599,-2.9251980372\H,0,1.7308486741,
 1.0407826078,-2.7797042605\H,0,-1.3731335363,0.5233873195,-0.773895985
 3\H,0,-0.15836699,5.099729121,0.0301134012\H,0,0.2083718565,6.34407148
 95,2.1605129729\H,0,1.1422748797,4.8836420018,2.4505210551\H,0,-0.2677
 84926,5.1604306356,4.4007420192\H,0,-1.6891359618,5.5317521933,3.43762
 47208\H,0,-1.443246955,2.9784539328,4.3996464918\H,0,-1.6778816351,1.7
 610132572,2.2642976157\\Version=ES64L-G16RevA.03\State=2-A\HF=-955.528
 5599\S2=0.756191\S2-1=0.\S2A=0.750016\RMSD=1.160e-11\Dipole=0.6685216,
 0.1352113,0.1687497\Quadrupole=1.1618678,1.1789781,-2.3408458,6.044682
 9,0.27921,-5.8452813\PG=C01 [X(C9H15N1O2S1)]\\@


 "ANNA, YOU MUSN'T SPEAK OF OXIDIZED MURIATIC ACID
 ANYMORE, FROM NOW ON YOU MUST SAY CHLORINE."
   -- JENS JACOB BERZELIUS, IN 1820, TO HIS COOK, WHO HAD
 COMPLAINED OF THE SMELL OF THE FLASK SHE WAS CLEANING.
 Job cpu time:       0 days  0 hours 42 minutes  5.2 seconds.
 Elapsed time:       0 days  0 hours 10 minutes 40.1 seconds.
 File lengths (MBytes):  RWF=    204 Int=      0 D2E=      0 Chk=     20 Scr=      8
 Normal termination of Gaussian 16 at Wed Dec  9 23:26:01 2020.
