 Entering Gaussian System, Link 0=g16
 Initial command:
 /apps/brussel/CO7/broadwell/software/Gaussian/G16.A.03-intel-2017b/g16/l1.exe "/scratch/brussel/102/vsc10255/3544754[2538].master01.hydra.brussel.vsc/Gau-1327.inp" -scrdir="/scratch/brussel/102/vsc10255/3544754[2538].master01.hydra.brussel.vsc/"
 Entering Link 1 = /apps/brussel/CO7/broadwell/software/Gaussian/G16.A.03-intel-2017b/g16/l1.exe.bin PID=      1328.
  
 Copyright (c) 1988,1990,1992,1993,1995,1998,2003,2009,2016,
            Gaussian, Inc.  All Rights Reserved.
  
 This is part of the Gaussian(R) 16 program.  It is based on
 the Gaussian(R) 09 system (copyright 2009, Gaussian, Inc.),
 the Gaussian(R) 03 system (copyright 2003, Gaussian, Inc.),
 the Gaussian(R) 98 system (copyright 1998, Gaussian, Inc.),
 the Gaussian(R) 94 system (copyright 1995, Gaussian, Inc.),
 the Gaussian 92(TM) system (copyright 1992, Gaussian, Inc.),
 the Gaussian 90(TM) system (copyright 1990, Gaussian, Inc.),
 the Gaussian 88(TM) system (copyright 1988, Gaussian, Inc.),
 the Gaussian 86(TM) system (copyright 1986, Carnegie Mellon
 University), and the Gaussian 82(TM) system (copyright 1983,
 Carnegie Mellon University). Gaussian is a federally registered
 trademark of Gaussian, Inc.
  
 This software contains proprietary and confidential information,
 including trade secrets, belonging to Gaussian, Inc.
  
 This software is provided under written license and may be
 used, copied, transmitted, or stored only in accord with that
 written license.
  
 The following legend is applicable only to US Government
 contracts under FAR:
  
                    RESTRICTED RIGHTS LEGEND
  
 Use, reproduction and disclosure by the US Government is
 subject to restrictions as set forth in subparagraphs (a)
 and (c) of the Commercial Computer Software - Restricted
 Rights clause in FAR 52.227-19.
  
 Gaussian, Inc.
 340 Quinnipiac St., Bldg. 40, Wallingford CT 06492
  
  
 ---------------------------------------------------------------
 Warning -- This program may not be used in any manner that
 competes with the business of Gaussian, Inc. or will provide
 assistance to any competitor of Gaussian, Inc.  The licensee
 of this program is prohibited from giving any competitor of
 Gaussian, Inc. access to this program.  By using this program,
 the user acknowledges that Gaussian, Inc. is engaged in the
 business of creating and licensing software in the field of
 computational chemistry and represents and warrants to the
 licensee that it is not a competitor of Gaussian, Inc. and that
 it will not use this program in any manner prohibited above.
 ---------------------------------------------------------------
  

 Cite this work as:
 Gaussian 16, Revision A.03,
 M. J. Frisch, G. W. Trucks, H. B. Schlegel, G. E. Scuseria, 
 M. A. Robb, J. R. Cheeseman, G. Scalmani, V. Barone, 
 G. A. Petersson, H. Nakatsuji, X. Li, M. Caricato, A. V. Marenich, 
 J. Bloino, B. G. Janesko, R. Gomperts, B. Mennucci, H. P. Hratchian, 
 J. V. Ortiz, A. F. Izmaylov, J. L. Sonnenberg, D. Williams-Young, 
 F. Ding, F. Lipparini, F. Egidi, J. Goings, B. Peng, A. Petrone, 
 T. Henderson, D. Ranasinghe, V. G. Zakrzewski, J. Gao, N. Rega, 
 G. Zheng, W. Liang, M. Hada, M. Ehara, K. Toyota, R. Fukuda, 
 J. Hasegawa, M. Ishida, T. Nakajima, Y. Honda, O. Kitao, H. Nakai, 
 T. Vreven, K. Throssell, J. A. Montgomery, Jr., J. E. Peralta, 
 F. Ogliaro, M. J. Bearpark, J. J. Heyd, E. N. Brothers, K. N. Kudin, 
 V. N. Staroverov, T. A. Keith, R. Kobayashi, J. Normand, 
 K. Raghavachari, A. P. Rendell, J. C. Burant, S. S. Iyengar, 
 J. Tomasi, M. Cossi, J. M. Millam, M. Klene, C. Adamo, R. Cammi, 
 J. W. Ochterski, R. L. Martin, K. Morokuma, O. Farkas, 
 J. B. Foresman, and D. J. Fox, Gaussian, Inc., Wallingford CT, 2016.
 
 ******************************************
 Gaussian 16:  ES64L-G16RevA.03 25-Dec-2016
                 9-Dec-2020 
 ******************************************
 %chk=JID_2538.chk
 %mem=8GB
 %nprocshared=4
 Will use up to    4 processors via shared memory.
 -----------------------------------------------------------
 # opt freq B3LYP/6-31G(d) empiricaldispersion=gd3bj scf=xqc
 -----------------------------------------------------------
 1/18=20,19=15,26=3,38=1/1,3;
 2/9=110,12=2,17=6,18=5,40=1/2;
 3/5=1,6=6,7=1,11=2,25=1,30=1,71=1,74=-5,124=41/1,2,3;
 4//1;
 5/5=2,8=3,13=1,38=5/2,8;
 6/7=2,8=2,9=2,10=2,28=1/1;
 7//1,2,3,16;
 1/18=20,19=15,26=3/3(2);
 2/9=110/2;
 99//99;
 2/9=110/2;
 3/5=1,6=6,7=1,11=2,25=1,30=1,71=1,74=-5,124=41/1,2,3;
 4/5=5,16=3,69=1/1;
 5/5=2,8=3,13=1,38=5/2,8;
 7//1,2,3,16;
 1/18=20,19=15,26=3/3(-5);
 2/9=110/2;
 6/7=2,8=2,9=2,10=2,19=2,28=1/1;
 99/9=1/99;
 -------------------------------
 CID_153843623_JID_2538_neutraal
 -------------------------------
 Symbolic Z-matrix:
 Charge =  0 Multiplicity = 1
 C                    -1.107    -1.277    -0.002 
 C                    -1.6306    0.01261  -0.04118 
 S                    -0.3578    1.14019  -0.3359 
 C                     0.78853  -0.10547  -0.14916 
 N                     0.31274  -1.30459   0.02525 
 N                     2.1148    0.15151  -0.1316 
 C                    -3.02054   0.46212   0.2162 
 O                    -3.34087   1.60873  -0.25439 
 O                    -3.74365  -0.21371   1.01264 
 C                    -1.89686  -2.56342  -0.07787 
 O                    -2.99719  -2.57137  -0.72013 
 O                    -1.32396  -3.61314   0.38287 
 H                     2.34523   1.05424   0.25827 
 H                     2.61461  -0.61806   0.29855 
 

 GradGradGradGradGradGradGradGradGradGradGradGradGradGradGradGradGradGrad
 Berny optimization.
 Initialization pass.
                           ----------------------------
                           !    Initial Parameters    !
                           ! (Angstroms and Degrees)  !
 --------------------------                            --------------------------
 ! Name  Definition              Value          Derivative Info.                !
 --------------------------------------------------------------------------------
 ! R1    R(1,2)                  1.3924         estimate D2E/DX2                !
 ! R2    R(1,5)                  1.4203         estimate D2E/DX2                !
 ! R3    R(1,10)                 1.5115         estimate D2E/DX2                !
 ! R4    R(2,3)                  1.7258         estimate D2E/DX2                !
 ! R5    R(2,7)                  1.4833         estimate D2E/DX2                !
 ! R6    R(3,4)                  1.7031         estimate D2E/DX2                !
 ! R7    R(4,5)                  1.3018         estimate D2E/DX2                !
 ! R8    R(4,6)                  1.3511         estimate D2E/DX2                !
 ! R9    R(6,13)                 1.01           estimate D2E/DX2                !
 ! R10   R(6,14)                 1.0134         estimate D2E/DX2                !
 ! R11   R(7,8)                  1.2801         estimate D2E/DX2                !
 ! R12   R(7,9)                  1.2704         estimate D2E/DX2                !
 ! R13   R(10,11)                1.2741         estimate D2E/DX2                !
 ! R14   R(10,12)                1.2816         estimate D2E/DX2                !
 ! A1    A(2,1,5)              113.2306         estimate D2E/DX2                !
 ! A2    A(2,1,10)             126.1822         estimate D2E/DX2                !
 ! A3    A(5,1,10)             120.4519         estimate D2E/DX2                !
 ! A4    A(1,2,3)              109.4271         estimate D2E/DX2                !
 ! A5    A(1,2,7)              128.9142         estimate D2E/DX2                !
 ! A6    A(3,2,7)              121.5151         estimate D2E/DX2                !
 ! A7    A(2,3,4)               89.9889         estimate D2E/DX2                !
 ! A8    A(3,4,5)              116.2571         estimate D2E/DX2                !
 ! A9    A(3,4,6)              121.5363         estimate D2E/DX2                !
 ! A10   A(5,4,6)              122.1573         estimate D2E/DX2                !
 ! A11   A(1,5,4)              110.1748         estimate D2E/DX2                !
 ! A12   A(4,6,13)             113.5159         estimate D2E/DX2                !
 ! A13   A(4,6,14)             110.1948         estimate D2E/DX2                !
 ! A14   A(13,6,14)            113.7263         estimate D2E/DX2                !
 ! A15   A(2,7,8)              116.2393         estimate D2E/DX2                !
 ! A16   A(2,7,9)              118.746          estimate D2E/DX2                !
 ! A17   A(8,7,9)              124.3684         estimate D2E/DX2                !
 ! A18   A(1,10,11)            118.8114         estimate D2E/DX2                !
 ! A19   A(1,10,12)            116.4542         estimate D2E/DX2                !
 ! A20   A(11,10,12)           124.2071         estimate D2E/DX2                !
 ! D1    D(5,1,2,3)             10.3638         estimate D2E/DX2                !
 ! D2    D(5,1,2,7)           -165.2654         estimate D2E/DX2                !
 ! D3    D(10,1,2,3)          -165.391          estimate D2E/DX2                !
 ! D4    D(10,1,2,7)            18.9799         estimate D2E/DX2                !
 ! D5    D(2,1,5,4)             -7.333          estimate D2E/DX2                !
 ! D6    D(10,1,5,4)           168.6926         estimate D2E/DX2                !
 ! D7    D(2,1,10,11)           29.1474         estimate D2E/DX2                !
 ! D8    D(2,1,10,12)         -158.8276         estimate D2E/DX2                !
 ! D9    D(5,1,10,11)         -146.3268         estimate D2E/DX2                !
 ! D10   D(5,1,10,12)           25.6983         estimate D2E/DX2                !
 ! D11   D(1,2,3,4)             -8.1548         estimate D2E/DX2                !
 ! D12   D(7,2,3,4)            167.8565         estimate D2E/DX2                !
 ! D13   D(1,2,7,8)           -160.1107         estimate D2E/DX2                !
 ! D14   D(1,2,7,9)             28.697          estimate D2E/DX2                !
 ! D15   D(3,2,7,8)             24.7255         estimate D2E/DX2                !
 ! D16   D(3,2,7,9)           -146.4668         estimate D2E/DX2                !
 ! D17   D(2,3,4,5)              4.3899         estimate D2E/DX2                !
 ! D18   D(2,3,4,6)           -173.1091         estimate D2E/DX2                !
 ! D19   D(3,4,5,1)              0.7819         estimate D2E/DX2                !
 ! D20   D(6,4,5,1)            178.264          estimate D2E/DX2                !
 ! D21   D(3,4,6,13)            31.4738         estimate D2E/DX2                !
 ! D22   D(3,4,6,14)           160.3479         estimate D2E/DX2                !
 ! D23   D(5,4,6,13)          -145.8767         estimate D2E/DX2                !
 ! D24   D(5,4,6,14)           -17.0026         estimate D2E/DX2                !
 --------------------------------------------------------------------------------
 Trust Radius=3.00D-01 FncErr=1.00D-07 GrdErr=1.00D-06 EigMax=2.50D+02 EigMin=1.00D-04
 Number of steps in this run=     68 maximum allowed number of steps=    100.
 GradGradGradGradGradGradGradGradGradGradGradGradGradGradGradGradGradGrad

                          Input orientation:                          
 ---------------------------------------------------------------------
 Center     Atomic      Atomic             Coordinates (Angstroms)
 Number     Number       Type             X           Y           Z
 ---------------------------------------------------------------------
      1          6           0       -1.107000   -1.277000   -0.002000
      2          6           0       -1.630600    0.012610   -0.041180
      3         16           0       -0.357800    1.140190   -0.335900
      4          6           0        0.788530   -0.105470   -0.149160
      5          7           0        0.312740   -1.304590    0.025250
      6          7           0        2.114800    0.151510   -0.131600
      7          6           0       -3.020540    0.462120    0.216200
      8          8           0       -3.340870    1.608730   -0.254390
      9          8           0       -3.743650   -0.213710    1.012640
     10          6           0       -1.896860   -2.563420   -0.077870
     11          8           0       -2.997190   -2.571370   -0.720130
     12          8           0       -1.323960   -3.613140    0.382870
     13          1           0        2.345230    1.054240    0.258270
     14          1           0        2.614610   -0.618060    0.298550
 ---------------------------------------------------------------------
                    Distance matrix (angstroms):
                    1          2          3          4          5
     1  C    0.000000
     2  C    1.392403   0.000000
     3  S    2.552567   1.725780   0.000000
     4  C    2.233198   2.424416   1.703119   0.000000
     5  N    1.420269   2.348616   2.560664   1.301800   0.000000
     6  N    3.526674   3.749065   2.670763   1.351051   2.322122
     7  C    2.594954   1.483320   2.802638   3.868418   3.777364
     8  O    3.658048   2.349060   3.020742   4.472304   4.681292
     9  O    3.018609   2.372075   3.887877   4.679973   4.315004
    10  C    1.511460   2.590014   4.018957   3.641143   2.545117
    11  O    2.400817   3.000916   4.570524   4.553937   3.621596
    12  O    2.377551   3.663319   4.903493   4.129094   2.852382
    13  H    4.173765   4.120909   2.768898   1.983492   3.122402
    14  H    3.791426   4.305226   3.511295   1.948784   2.417565
                    6          7          8          9         10
     6  N    0.000000
     7  C    5.156468   0.000000
     8  O    5.648265   1.280149   0.000000
     9  O    5.980310   1.270414   2.255856   0.000000
    10  C    4.844290   3.240837   4.418502   3.181349   0.000000
    11  O    5.821760   3.174795   4.219984   3.019645   1.274083
    12  O    5.124679   4.417455   5.634000   4.219909   1.281565
    13  H    1.009959   5.398506   5.736028   6.265080   5.585318
    14  H    1.013448   5.738335   6.382169   6.410998   4.927421
                   11         12         13         14
    11  O    0.000000
    12  O    2.258670   0.000000
    13  H    6.530219   5.938259   0.000000
    14  H    6.028717   4.948732   1.694336   0.000000
 Stoichiometry    C5H2N2O4S
 Framework group  C1[X(C5H2N2O4S)]
 Deg. of freedom    36
 Full point group                 C1      NOp   1
 Largest Abelian subgroup         C1      NOp   1
 Largest concise Abelian subgroup C1      NOp   1
                         Standard orientation:                         
 ---------------------------------------------------------------------
 Center     Atomic      Atomic             Coordinates (Angstroms)
 Number     Number       Type             X           Y           Z
 ---------------------------------------------------------------------
      1          6           0        0.160261    0.755069    0.012110
      2          6           0        0.171287   -0.636881   -0.021628
      3         16           0       -1.441196   -1.219042   -0.219873
      4          6           0       -2.037928    0.361558   -0.004865
      5          7           0       -1.146281    1.302644    0.113480
      6          7           0       -3.362589    0.610086    0.089182
      7          6           0        1.312092   -1.564633    0.173507
      8          8           0        1.161597   -2.750790   -0.283836
      9          8           0        2.277863   -1.198358    0.913155
     10          6           0        1.360908    1.660810   -0.138192
     11          8           0        2.347958    1.260965   -0.837579
     12          8           0        1.240785    2.849643    0.325117
     13          1           0       -3.884760   -0.143043    0.513626
     14          1           0       -3.519356    1.511382    0.525265
 ---------------------------------------------------------------------
 Rotational constants (GHZ):           1.0437750           0.8258013           0.4881929
 Standard basis: 6-31G(d) (6D, 7F)
 There are   188 symmetry adapted cartesian basis functions of A   symmetry.
 There are   188 symmetry adapted basis functions of A   symmetry.
   188 basis functions,   368 primitive gaussians,   188 cartesian basis functions
    47 alpha electrons       47 beta electrons
       nuclear repulsion energy       765.2957315465 Hartrees.
 NAtoms=   14 NActive=   14 NUniq=   14 SFac= 1.00D+00 NAtFMM=   60 NAOKFM=F Big=F
 Integral buffers will be    131072 words long.
 Raffenetti 2 integral format.
 Two-electron integral symmetry is turned on.
 Nuclear repulsion after empirical dispersion term =      765.2648207956 Hartrees.
 One-electron integrals computed using PRISM.
 NBasis=   188 RedAO= T EigKep=  1.53D-03  NBF=   188
 NBsUse=   188 1.00D-06 EigRej= -1.00D+00 NBFU=   188
 ExpMin= 1.17D-01 ExpMax= 2.19D+04 ExpMxC= 3.30D+03 IAcc=3 IRadAn=         5 AccDes= 0.00D+00
 Harris functional with IExCor=  402 and IRadAn=       5 diagonalized for initial guess.
 HarFok:  IExCor=  402 AccDes= 0.00D+00 IRadAn=         5 IDoV= 1 UseB2=F ITyADJ=14
 ICtDFT=  3500011 ScaDFX=  1.000000  1.000000  1.000000  1.000000
 FoFCou: FMM=F IPFlag=           0 FMFlag=      100000 FMFlg1=           0
         NFxFlg=           0 DoJE=T BraDBF=F KetDBF=T FulRan=T
         wScrn=  0.000000 ICntrl=       500 IOpCl=  0 I1Cent=   200000004 NGrid=           0
         NMat0=    1 NMatS0=      1 NMatT0=    0 NMatD0=    1 NMtDS0=    0 NMtDT0=    0
 Petite list used in FoFCou.
 Keep R1 ints in memory in canonical form, NReq=161891310.
 Requested convergence on RMS density matrix=1.00D-08 within  32 cycles.
 Requested convergence on MAX density matrix=1.00D-06.
 Requested convergence on             energy=1.00D-06.
 No special actions if energy rises.
 Integral accuracy reduced to 1.0D-05 until final iterations.
 EnCoef did     4 forward-backward iterations
 EnCoef did     2 forward-backward iterations
 EnCoef did     4 forward-backward iterations
 EnCoef did     4 forward-backward iterations
 EnCoef did     5 forward-backward iterations
 EnCoef did     2 forward-backward iterations
 EnCoef did     5 forward-backward iterations
 Failed to achieve initial convergence to 1.0D-08 in 10 cycles.
 Switch to full accuracy anyway.
 EnCoef did     2 forward-backward iterations
 EnCoef did     2 forward-backward iterations
 SCF Done:  E(RB3LYP) =  -1000.17586403     A.U. after   28 cycles
            NFock= 28  Conv=0.61D-08     -V/T= 2.0068
 QCSCF skips out because SCF is already converged.

 **********************************************************************

            Population analysis using the SCF density.

 **********************************************************************

 Orbital symmetries:
       Occupied  (A) (A) (A) (A) (A) (A) (A) (A) (A) (A) (A) (A)
                 (A) (A) (A) (A) (A) (A) (A) (A) (A) (A) (A) (A)
                 (A) (A) (A) (A) (A) (A) (A) (A) (A) (A) (A) (A)
                 (A) (A) (A) (A) (A) (A) (A) (A) (A) (A) (A)
       Virtual   (A) (A) (A) (A) (A) (A) (A) (A) (A) (A) (A) (A)
                 (A) (A) (A) (A) (A) (A) (A) (A) (A) (A) (A) (A)
                 (A) (A) (A) (A) (A) (A) (A) (A) (A) (A) (A) (A)
                 (A) (A) (A) (A) (A) (A) (A) (A) (A) (A) (A) (A)
                 (A) (A) (A) (A) (A) (A) (A) (A) (A) (A) (A) (A)
                 (A) (A) (A) (A) (A) (A) (A) (A) (A) (A) (A) (A)
                 (A) (A) (A) (A) (A) (A) (A) (A) (A) (A) (A) (A)
                 (A) (A) (A) (A) (A) (A) (A) (A) (A) (A) (A) (A)
                 (A) (A) (A) (A) (A) (A) (A) (A) (A) (A) (A) (A)
                 (A) (A) (A) (A) (A) (A) (A) (A) (A) (A) (A) (A)
                 (A) (A) (A) (A) (A) (A) (A) (A) (A) (A) (A) (A)
                 (A) (A) (A) (A) (A) (A) (A) (A) (A)
 The electronic state is 1-A.
 Alpha  occ. eigenvalues --  -88.98854 -19.18974 -19.18487 -19.17903 -19.17799
 Alpha  occ. eigenvalues --  -14.44860 -14.40213 -10.36714 -10.34673 -10.34456
 Alpha  occ. eigenvalues --  -10.31870 -10.31486  -8.05147  -6.01556  -6.01159
 Alpha  occ. eigenvalues --   -6.00807  -1.09037  -1.08388  -1.06677  -0.99714
 Alpha  occ. eigenvalues --   -0.99431  -0.98793  -0.88258  -0.81620  -0.70615
 Alpha  occ. eigenvalues --   -0.66854  -0.61663  -0.61343  -0.55693  -0.53102
 Alpha  occ. eigenvalues --   -0.50965  -0.49974  -0.48357  -0.46718  -0.45654
 Alpha  occ. eigenvalues --   -0.45333  -0.44673  -0.43191  -0.38796  -0.35113
 Alpha  occ. eigenvalues --   -0.34672  -0.31153  -0.30736  -0.30581  -0.30268
 Alpha  occ. eigenvalues --   -0.29291  -0.28289
 Alpha virt. eigenvalues --   -0.23937  -0.10829  -0.05700  -0.03470   0.00382
 Alpha virt. eigenvalues --    0.02678   0.05044   0.05833   0.09327   0.14415
 Alpha virt. eigenvalues --    0.15986   0.20292   0.21625   0.24195   0.27140
 Alpha virt. eigenvalues --    0.29363   0.29526   0.30432   0.33313   0.34285
 Alpha virt. eigenvalues --    0.37066   0.42161   0.45693   0.47017   0.51142
 Alpha virt. eigenvalues --    0.51574   0.52666   0.54769   0.55048   0.56123
 Alpha virt. eigenvalues --    0.56843   0.58807   0.59173   0.61206   0.64309
 Alpha virt. eigenvalues --    0.65734   0.66570   0.67550   0.70297   0.73674
 Alpha virt. eigenvalues --    0.75829   0.77818   0.79182   0.80642   0.82126
 Alpha virt. eigenvalues --    0.83337   0.84614   0.86084   0.87127   0.87759
 Alpha virt. eigenvalues --    0.88788   0.91182   0.92133   0.93163   0.95127
 Alpha virt. eigenvalues --    0.97320   0.97722   0.99902   1.01706   1.03985
 Alpha virt. eigenvalues --    1.05815   1.08411   1.09008   1.09653   1.13280
 Alpha virt. eigenvalues --    1.14292   1.15580   1.25879   1.28097   1.29173
 Alpha virt. eigenvalues --    1.34061   1.38937   1.40057   1.44168   1.47961
 Alpha virt. eigenvalues --    1.50729   1.51425   1.55684   1.57224   1.59716
 Alpha virt. eigenvalues --    1.68595   1.71180   1.71500   1.74167   1.75250
 Alpha virt. eigenvalues --    1.76101   1.78934   1.79866   1.80607   1.81731
 Alpha virt. eigenvalues --    1.82529   1.85335   1.86002   1.88774   1.91698
 Alpha virt. eigenvalues --    1.94028   1.97482   1.98340   1.99146   2.00209
 Alpha virt. eigenvalues --    2.01356   2.06709   2.09426   2.18586   2.19498
 Alpha virt. eigenvalues --    2.22503   2.24525   2.30216   2.35843   2.39121
 Alpha virt. eigenvalues --    2.40225   2.41831   2.46875   2.48381   2.52315
 Alpha virt. eigenvalues --    2.58239   2.61963   2.63131   2.67239   2.72035
 Alpha virt. eigenvalues --    2.78969   2.82678   2.84266   2.88214   2.92263
 Alpha virt. eigenvalues --    2.95281   3.03572   3.12388   3.17360   3.75494
 Alpha virt. eigenvalues --    3.80587   3.81706   3.88145   3.98431   4.00809
 Alpha virt. eigenvalues --    4.12008   4.19610   4.20501   4.33071   4.39890
 Alpha virt. eigenvalues --    4.54723
          Condensed to atoms (all electrons):
               1          2          3          4          5          6
     1  C    5.113610   0.326398  -0.088855  -0.040756   0.386212   0.005790
     2  C    0.326398   5.694261   0.301196  -0.037948  -0.070000   0.001856
     3  S   -0.088855   0.301196  15.314014   0.247125  -0.067901  -0.074921
     4  C   -0.040756  -0.037948   0.247125   4.836874   0.401263   0.327806
     5  N    0.386212  -0.070000  -0.067901   0.401263   6.896029  -0.081184
     6  N    0.005790   0.001856  -0.074921   0.327806  -0.081184   6.894549
     7  C   -0.005246   0.209037  -0.029496   0.002494   0.002766  -0.000030
     8  O    0.003644  -0.102136   0.020275   0.000160  -0.000062  -0.000000
     9  O    0.004015  -0.100778   0.003498  -0.000033  -0.000031   0.000000
    10  C    0.236312  -0.040536   0.000382   0.007054  -0.041713  -0.000020
    11  O   -0.098078   0.007001  -0.000293  -0.000063   0.000983   0.000000
    12  O   -0.094780   0.004303  -0.000304   0.000350   0.001864   0.000003
    13  H   -0.000192   0.000041   0.001823  -0.027892   0.003131   0.313164
    14  H    0.000047  -0.000034   0.005555  -0.019238   0.005440   0.301320
               7          8          9         10         11         12
     1  C   -0.005246   0.003644   0.004015   0.236312  -0.098078  -0.094780
     2  C    0.209037  -0.102136  -0.100778  -0.040536   0.007001   0.004303
     3  S   -0.029496   0.020275   0.003498   0.000382  -0.000293  -0.000304
     4  C    0.002494   0.000160  -0.000033   0.007054  -0.000063   0.000350
     5  N    0.002766  -0.000062  -0.000031  -0.041713   0.000983   0.001864
     6  N   -0.000030  -0.000000   0.000000  -0.000020   0.000000   0.000003
     7  C    4.339239   0.417674   0.429853   0.000451   0.006931   0.000049
     8  O    0.417674   8.150349  -0.064308   0.000055  -0.000040  -0.000000
     9  O    0.429853  -0.064308   8.113003   0.005069  -0.000170  -0.000037
    10  C    0.000451   0.000055   0.005069   4.384363   0.416261   0.424225
    11  O    0.006931  -0.000040  -0.000170   0.416261   8.112151  -0.062280
    12  O    0.000049  -0.000000  -0.000037   0.424225  -0.062280   8.118779
    13  H   -0.000001   0.000000   0.000000   0.000002  -0.000000   0.000000
    14  H    0.000001   0.000000  -0.000000  -0.000018   0.000000   0.000003
              13         14
     1  C   -0.000192   0.000047
     2  C    0.000041  -0.000034
     3  S    0.001823   0.005555
     4  C   -0.027892  -0.019238
     5  N    0.003131   0.005440
     6  N    0.313164   0.301320
     7  C   -0.000001   0.000001
     8  O    0.000000   0.000000
     9  O    0.000000  -0.000000
    10  C    0.000002  -0.000018
    11  O   -0.000000   0.000000
    12  O    0.000000   0.000003
    13  H    0.361763  -0.020817
    14  H   -0.020817   0.345627
 Mulliken charges:
               1
     1  C    0.251877
     2  C   -0.192662
     3  S    0.367900
     4  C    0.302802
     5  N   -0.436796
     6  N   -0.688332
     7  C    0.626277
     8  O   -0.425612
     9  O   -0.390081
    10  C    0.608115
    11  O   -0.382404
    12  O   -0.392176
    13  H    0.368979
    14  H    0.382115
 Sum of Mulliken charges =   0.00000
 Mulliken charges with hydrogens summed into heavy atoms:
               1
     1  C    0.251877
     2  C   -0.192662
     3  S    0.367900
     4  C    0.302802
     5  N   -0.436796
     6  N    0.062761
     7  C    0.626277
     8  O   -0.425612
     9  O   -0.390081
    10  C    0.608115
    11  O   -0.382404
    12  O   -0.392176
 Electronic spatial extent (au):  <R**2>=           2124.4091
 Charge=              0.0000 electrons
 Dipole moment (field-independent basis, Debye):
    X=            -10.3437    Y=             -0.6223    Z=              0.9984  Tot=             10.4103
 Quadrupole moment (field-independent basis, Debye-Ang):
   XX=            -63.0478   YY=            -89.1254   ZZ=            -72.3429
   XY=             -0.3476   XZ=             -5.6071   YZ=              0.1647
 Traceless Quadrupole moment (field-independent basis, Debye-Ang):
   XX=             11.7909   YY=            -14.2867   ZZ=              2.4958
   XY=             -0.3476   XZ=             -5.6071   YZ=              0.1647
 Octapole moment (field-independent basis, Debye-Ang**2):
  XXX=            -97.4095  YYY=             -1.8123  ZZZ=              1.4480  XYY=            -27.8950
  XXY=              6.2160  XXZ=             21.9145  XZZ=             -2.2793  YZZ=              1.0422
  YYZ=              0.7520  XYZ=             -1.3925
 Hexadecapole moment (field-independent basis, Debye-Ang**3):
 XXXX=          -1165.3227 YYYY=          -1219.6675 ZZZZ=           -128.9701 XXXY=            -29.3575
 XXXZ=            -91.2542 YYYX=            -11.0280 YYYZ=            -19.9484 ZZZX=             -5.6128
 ZZZY=              1.8956 XXYY=           -412.6726 XXZZ=           -257.5389 YYZZ=           -197.3961
 XXYZ=             27.1503 YYXZ=             -7.8960 ZZXY=             -1.4177
 N-N= 7.652648207956D+02 E-N=-3.884316010856D+03  KE= 9.934072333585D+02
 Calling FoFJK, ICntrl=      2127 FMM=F ISym2X=0 I1Cent= 0 IOpClX= 0 NMat=1 NMatS=1 NMatT=0.
 ***** Axes restored to original set *****
 -------------------------------------------------------------------
 Center     Atomic                   Forces (Hartrees/Bohr)
 Number     Number              X              Y              Z
 -------------------------------------------------------------------
      1        6           0.046677785   -0.017844044    0.003586643
      2        6          -0.010592005    0.003466812   -0.007103575
      3       16          -0.025232759    0.040782411    0.000122850
      4        6           0.013601970   -0.011876589    0.006453516
      5        7          -0.051350468   -0.030482725   -0.005909255
      6        7          -0.004768456   -0.000291690    0.007931210
      7        6          -0.021835505    0.029519018    0.007506072
      8        8           0.005669832   -0.035869259    0.009404482
      9        8           0.020385091    0.010841387   -0.020062988
     10        6           0.009867800   -0.029608928   -0.000525154
     11        8           0.029640608    0.005116206    0.018824850
     12        8          -0.027094984    0.033809873   -0.012993365
     13        1           0.007845613    0.004839550   -0.003071734
     14        1           0.007185479   -0.002402021   -0.004163553
 -------------------------------------------------------------------
 Cartesian Forces:  Max     0.051350468 RMS     0.020257323

 GradGradGradGradGradGradGradGradGradGradGradGradGradGradGradGradGradGrad
 Berny optimization.
 FormGI is forming the generalized inverse of G from B-inverse, IUseBI=4.
 Internal  Forces:  Max     0.047658519 RMS     0.014699925
 Search for a local minimum.
 Step number   1 out of a maximum of   68
 All quantities printed in internal units (Hartrees-Bohrs-Radians)
 Mixed Optimization -- RFO/linear search
 Second derivative matrix not updated -- first step.
 ITU=  0
     Eigenvalues ---    0.00614   0.00756   0.00987   0.01159   0.01404
     Eigenvalues ---    0.01560   0.01921   0.02132   0.02339   0.02358
     Eigenvalues ---    0.05534   0.16000   0.16000   0.24813   0.24877
     Eigenvalues ---    0.24960   0.24973   0.24985   0.25000   0.25000
     Eigenvalues ---    0.25000   0.25000   0.31204   0.32321   0.34192
     Eigenvalues ---    0.34445   0.41330   0.45136   0.45400   0.45979
     Eigenvalues ---    0.54798   0.63832   0.72584   0.73022   0.74937
     Eigenvalues ---    0.76128
 RFO step:  Lambda=-3.29562342D-02 EMin= 6.14352990D-03
 Linear search not attempted -- first point.
 Iteration  1 RMS(Cart)=  0.11424917 RMS(Int)=  0.00817073
 Iteration  2 RMS(Cart)=  0.00979284 RMS(Int)=  0.00264743
 Iteration  3 RMS(Cart)=  0.00004288 RMS(Int)=  0.00264713
 Iteration  4 RMS(Cart)=  0.00000008 RMS(Int)=  0.00264713
 Variable       Old X    -DE/DX   Delta X   Delta X   Delta X     New X
                                 (Linear)    (Quad)   (Total)
    R1        2.63126   0.01845   0.00000   0.03439   0.03423   2.66549
    R2        2.68392  -0.04766   0.00000  -0.10691  -0.10726   2.57667
    R3        2.85625  -0.01468   0.00000  -0.04256  -0.04256   2.81368
    R4        3.26125   0.00003   0.00000   0.00060   0.00071   3.26196
    R5        2.80307  -0.00314   0.00000  -0.00838  -0.00838   2.79469
    R6        3.21843   0.03880   0.00000   0.10376   0.10407   3.32250
    R7        2.46005   0.02310   0.00000   0.03359   0.03357   2.49362
    R8        2.55312   0.01049   0.00000   0.01806   0.01806   2.57118
    R9        1.90855   0.00493   0.00000   0.01001   0.01001   1.91855
   R10        1.91514   0.00360   0.00000   0.00739   0.00739   1.92253
   R11        2.41913  -0.03700   0.00000  -0.04849  -0.04849   2.37064
   R12        2.40073  -0.02995   0.00000  -0.03771  -0.03771   2.36303
   R13        2.40767  -0.03512   0.00000  -0.04489  -0.04489   2.36278
   R14        2.42181  -0.04448   0.00000  -0.05862  -0.05862   2.36319
    A1        1.97625   0.01308   0.00000   0.04095   0.03980   2.01604
    A2        2.20229  -0.01176   0.00000  -0.03947  -0.03893   2.16336
    A3        2.10228  -0.00138   0.00000  -0.00320  -0.00298   2.09930
    A4        1.90986   0.00771   0.00000   0.02555   0.02446   1.93432
    A5        2.24998  -0.00561   0.00000  -0.01994  -0.01961   2.23037
    A6        2.12084  -0.00224   0.00000  -0.00871  -0.00895   2.11189
    A7        1.57060  -0.01841   0.00000  -0.05117  -0.05154   1.51906
    A8        2.02907   0.00430   0.00000   0.02390   0.02263   2.05170
    A9        2.12121  -0.00176   0.00000  -0.00950  -0.01001   2.11120
   A10        2.13205  -0.00238   0.00000  -0.01159  -0.01210   2.11994
   A11        1.92291  -0.00563   0.00000  -0.02060  -0.02223   1.90068
   A12        1.98123   0.01147   0.00000   0.07707   0.07221   2.05343
   A13        1.92326   0.00842   0.00000   0.06198   0.05697   1.98023
   A14        1.98490  -0.00382   0.00000   0.00948   0.00276   1.98766
   A15        2.02876   0.00812   0.00000   0.03676   0.03068   2.05944
   A16        2.07251  -0.01016   0.00000  -0.02786  -0.03394   2.03856
   A17        2.17064   0.00328   0.00000   0.01978   0.01369   2.18433
   A18        2.07365  -0.01198   0.00000  -0.03464  -0.04124   2.03241
   A19        2.03251   0.01446   0.00000   0.05880   0.05220   2.08471
   A20        2.16782  -0.00138   0.00000   0.00291  -0.00370   2.16412
    D1        0.18088  -0.00374   0.00000  -0.09943  -0.10199   0.07889
    D2       -2.88442  -0.00162   0.00000  -0.05238  -0.05446  -2.93889
    D3       -2.88662  -0.00294   0.00000  -0.07288  -0.07448  -2.96110
    D4        0.33126  -0.00081   0.00000  -0.02583  -0.02695   0.30431
    D5       -0.12799   0.00481   0.00000   0.07978   0.07887  -0.04911
    D6        2.94424   0.00352   0.00000   0.05305   0.05065   2.99490
    D7        0.50872  -0.00290   0.00000  -0.07954  -0.07956   0.42916
    D8       -2.77206   0.00536   0.00000   0.12434   0.12392  -2.64814
    D9       -2.55388  -0.00256   0.00000  -0.05277  -0.05235  -2.60623
   D10        0.44852   0.00570   0.00000   0.15111   0.15113   0.59965
   D11       -0.14233   0.00581   0.00000   0.08333   0.08044  -0.06189
   D12        2.92965   0.00366   0.00000   0.03966   0.03594   2.96559
   D13       -2.79446   0.00507   0.00000   0.11246   0.11244  -2.68202
   D14        0.50086  -0.00365   0.00000  -0.08343  -0.08321   0.41765
   D15        0.43154   0.00707   0.00000   0.16333   0.16311   0.59465
   D16       -2.55633  -0.00165   0.00000  -0.03257  -0.03254  -2.58887
   D17        0.07662  -0.00190   0.00000  -0.03790  -0.03756   0.03905
   D18       -3.02132  -0.00584   0.00000  -0.10856  -0.10875  -3.13007
   D19        0.01365  -0.00110   0.00000  -0.01604  -0.01576  -0.00211
   D20        3.11129   0.00288   0.00000   0.05516   0.05587  -3.11603
   D21        0.54932  -0.00294   0.00000  -0.01623  -0.01873   0.53059
   D22        2.79860   0.00848   0.00000   0.11319   0.11480   2.91340
   D23       -2.54603  -0.00729   0.00000  -0.09198  -0.09359  -2.63962
   D24       -0.29675   0.00414   0.00000   0.03744   0.03994  -0.25681
         Item               Value     Threshold  Converged?
 Maximum Force            0.047659     0.000450     NO 
 RMS     Force            0.014700     0.000300     NO 
 Maximum Displacement     0.301310     0.001800     NO 
 RMS     Displacement     0.113734     0.001200     NO 
 Predicted change in Energy=-2.038083D-02
 GradGradGradGradGradGradGradGradGradGradGradGradGradGradGradGradGradGrad

                          Input orientation:                          
 ---------------------------------------------------------------------
 Center     Atomic      Atomic             Coordinates (Angstroms)
 Number     Number       Type             X           Y           Z
 ---------------------------------------------------------------------
      1          6           0       -1.066066   -1.262043    0.010838
      2          6           0       -1.619356    0.035034   -0.020985
      3         16           0       -0.380616    1.227075   -0.176454
      4          6           0        0.775892   -0.093531   -0.077852
      5          7           0        0.296235   -1.319471    0.012984
      6          7           0        2.114812    0.143381   -0.127054
      7          6           0       -3.027985    0.425164    0.204112
      8          8           0       -3.439178    1.482167   -0.331998
      9          8           0       -3.728530   -0.358043    0.881957
     10          6           0       -1.870048   -2.511623   -0.084548
     11          8           0       -2.978479   -2.418427   -0.655524
     12          8           0       -1.448187   -3.556905    0.457012
     13          1           0        2.450691    1.027783    0.241400
     14          1           0        2.678256   -0.657921    0.147661
 ---------------------------------------------------------------------
                    Distance matrix (angstroms):
                    1          2          3          4          5
     1  C    0.000000
     2  C    1.410514   0.000000
     3  S    2.588557   1.726154   0.000000
     4  C    2.183139   2.399370   1.758190   0.000000
     5  N    1.363512   2.346343   2.641763   1.319565   0.000000
     6  N    3.480260   3.737245   2.721028   1.360608   2.338112
     7  C    2.594832   1.478888   2.792213   3.849420   3.759086
     8  O    3.644158   2.345779   3.073120   4.507131   4.682040
     9  O    2.943600   2.327753   3.852449   4.613136   4.228262
    10  C    1.488938   2.559755   4.025508   3.584441   2.474575
    11  O    2.332078   2.875643   4.502008   4.453555   3.518289
    12  O    2.368856   3.627644   4.942413   4.150611   2.871633
    13  H    4.202861   4.197580   2.868905   2.040642   3.194285
    14  H    3.795211   4.356385   3.607625   1.997093   2.475845
                    6          7          8          9         10
     6  N    0.000000
     7  C    5.161147   0.000000
     8  O    5.716743   1.254491   0.000000
     9  O    5.950981   1.250460   2.223462   0.000000
    10  C    4.788524   3.169995   4.298111   3.004330   0.000000
    11  O    5.725710   2.971100   3.941008   2.677985   1.250328
    12  O    5.169933   4.291456   5.475292   3.951362   1.250547
    13  H    1.015254   5.511845   5.935133   6.365030   5.594857
    14  H    1.017361   5.808395   6.498696   6.455697   4.917031
                   11         12         13         14
    11  O    0.000000
    12  O    2.208090   0.000000
    13  H    6.492821   6.022218   0.000000
    14  H    5.978556   5.052458   1.703576   0.000000
 Stoichiometry    C5H2N2O4S
 Framework group  C1[X(C5H2N2O4S)]
 Deg. of freedom    36
 Full point group                 C1      NOp   1
 Largest Abelian subgroup         C1      NOp   1
 Largest concise Abelian subgroup C1      NOp   1
                         Standard orientation:                         
 ---------------------------------------------------------------------
 Center     Atomic      Atomic             Coordinates (Angstroms)
 Number     Number       Type             X           Y           Z
 ---------------------------------------------------------------------
      1          6           0        0.097691    0.773341   -0.008090
      2          6           0        0.148919   -0.636240   -0.010570
      3         16           0       -1.439438   -1.308014   -0.084395
      4          6           0       -2.042244    0.341307    0.002770
      5          7           0       -1.152697    1.315448    0.034510
      6          7           0       -3.378189    0.599193    0.003920
      7          6           0        1.333151   -1.500372    0.184317
      8          8           0        1.316438   -2.646225   -0.326064
      9          8           0        2.295182   -1.005491    0.811405
     10          6           0        1.290457    1.649093   -0.173333
     11          8           0        2.267311    1.151922   -0.774911
     12          8           0        1.293255    2.787955    0.343245
     13          1           0       -3.992217   -0.097500    0.414198
     14          1           0       -3.605905    1.555167    0.267136
 ---------------------------------------------------------------------
 Rotational constants (GHZ):           1.1034713           0.8266386           0.4957486
 Standard basis: 6-31G(d) (6D, 7F)
 There are   188 symmetry adapted cartesian basis functions of A   symmetry.
 There are   188 symmetry adapted basis functions of A   symmetry.
   188 basis functions,   368 primitive gaussians,   188 cartesian basis functions
    47 alpha electrons       47 beta electrons
       nuclear repulsion energy       771.6637077820 Hartrees.
 NAtoms=   14 NActive=   14 NUniq=   14 SFac= 1.00D+00 NAtFMM=   60 NAOKFM=F Big=F
 Integral buffers will be    131072 words long.
 Raffenetti 2 integral format.
 Two-electron integral symmetry is turned on.
 Nuclear repulsion after empirical dispersion term =      771.6325365829 Hartrees.
 One-electron integrals computed using PRISM.
 NBasis=   188 RedAO= T EigKep=  1.52D-03  NBF=   188
 NBsUse=   188 1.00D-06 EigRej= -1.00D+00 NBFU=   188
 Initial guess from the checkpoint file:  "JID_2538.chk"
 B after Tr=     0.000000    0.000000   -0.000000
         Rot=    0.999929    0.008254   -0.001245   -0.008464 Ang=   1.36 deg.
 ExpMin= 1.17D-01 ExpMax= 2.19D+04 ExpMxC= 3.30D+03 IAcc=2 IRadAn=         4 AccDes= 0.00D+00
 Harris functional with IExCor=  402 and IRadAn=       4 diagonalized for initial guess.
 HarFok:  IExCor=  402 AccDes= 0.00D+00 IRadAn=         4 IDoV= 1 UseB2=F ITyADJ=14
 ICtDFT=  3500011 ScaDFX=  1.000000  1.000000  1.000000  1.000000
 FoFCou: FMM=F IPFlag=           0 FMFlag=      100000 FMFlg1=           0
         NFxFlg=           0 DoJE=T BraDBF=F KetDBF=T FulRan=T
         wScrn=  0.000000 ICntrl=       500 IOpCl=  0 I1Cent=   200000004 NGrid=           0
         NMat0=    1 NMatS0=      1 NMatT0=    0 NMatD0=    1 NMtDS0=    0 NMtDT0=    0
 Petite list used in FoFCou.
 Keep R1 ints in memory in canonical form, NReq=161891310.
 Requested convergence on RMS density matrix=1.00D-08 within  32 cycles.
 Requested convergence on MAX density matrix=1.00D-06.
 Requested convergence on             energy=1.00D-06.
 No special actions if energy rises.
 Integral accuracy reduced to 1.0D-05 until final iterations.
 EnCoef did     3 forward-backward iterations
 EnCoef did     2 forward-backward iterations
 Failed to achieve initial convergence to 1.0D-08 in 10 cycles.
 Switch to full accuracy anyway.
 SCF Done:  E(RB3LYP) =  -1000.19284697     A.U. after   23 cycles
            NFock= 23  Conv=0.41D-08     -V/T= 2.0065
 QCSCF skips out because SCF is already converged.
 Calling FoFJK, ICntrl=      2127 FMM=F ISym2X=0 I1Cent= 0 IOpClX= 0 NMat=1 NMatS=1 NMatT=0.
 ***** Axes restored to original set *****
 -------------------------------------------------------------------
 Center     Atomic                   Forces (Hartrees/Bohr)
 Number     Number              X              Y              Z
 -------------------------------------------------------------------
      1        6           0.021348187   -0.006477709   -0.004409937
      2        6          -0.005637391    0.004204832    0.001153707
      3       16          -0.005342086    0.004279676    0.003456034
      4        6           0.027539673   -0.001705186    0.002060290
      5        7          -0.017315805    0.002396800   -0.005676917
      6        7          -0.010007227   -0.001340330    0.010034923
      7        6          -0.016255152    0.004781230   -0.015746124
      8        8           0.006049131   -0.005435043    0.005864714
      9        8           0.003782737    0.003261806    0.006951691
     10        6          -0.003577063   -0.009818765    0.022745371
     11        8           0.000042061   -0.000299778   -0.009961256
     12        8          -0.000985877    0.005860476   -0.007214580
     13        1           0.000319915    0.000368069   -0.004716532
     14        1           0.000038896   -0.000076078   -0.004541383
 -------------------------------------------------------------------
 Cartesian Forces:  Max     0.027539673 RMS     0.009126057

 GradGradGradGradGradGradGradGradGradGradGradGradGradGradGradGradGradGrad
 Berny optimization.
 Using GEDIIS/GDIIS optimizer.
 FormGI is forming the generalized inverse of G from B-inverse, IUseBI=4.
 Internal  Forces:  Max     0.010457256 RMS     0.004872989
 Search for a local minimum.
 Step number   2 out of a maximum of   68
 All quantities printed in internal units (Hartrees-Bohrs-Radians)
 Mixed Optimization -- RFO/linear search
 Update second derivatives using D2CorX and points    1    2
 DE= -1.70D-02 DEPred=-2.04D-02 R= 8.33D-01
 TightC=F SS=  1.41D+00  RLast= 4.80D-01 DXNew= 5.0454D-01 1.4408D+00
 Trust test= 8.33D-01 RLast= 4.80D-01 DXMaxT set to 5.05D-01
 ITU=  1  0
 Use linear search instead of GDIIS.
     Eigenvalues ---    0.00600   0.00718   0.00963   0.01183   0.01426
     Eigenvalues ---    0.01616   0.02081   0.02180   0.02340   0.02462
     Eigenvalues ---    0.04453   0.15920   0.16007   0.23291   0.24802
     Eigenvalues ---    0.24903   0.24924   0.24994   0.24999   0.25000
     Eigenvalues ---    0.25000   0.27039   0.30600   0.31899   0.32646
     Eigenvalues ---    0.34952   0.39480   0.44398   0.45439   0.46042
     Eigenvalues ---    0.55747   0.62567   0.68470   0.72838   0.75649
     Eigenvalues ---    0.76382
 RFO step:  Lambda=-1.98373690D-02 EMin= 6.00466062D-03
 Quartic linear search produced a step of -0.00111.
 Iteration  1 RMS(Cart)=  0.08528202 RMS(Int)=  0.03419162
 Iteration  2 RMS(Cart)=  0.04886973 RMS(Int)=  0.01038494
 Iteration  3 RMS(Cart)=  0.00295654 RMS(Int)=  0.00985811
 Iteration  4 RMS(Cart)=  0.00005141 RMS(Int)=  0.00985804
 Iteration  5 RMS(Cart)=  0.00000192 RMS(Int)=  0.00985804
 Iteration  6 RMS(Cart)=  0.00000008 RMS(Int)=  0.00985804
 Variable       Old X    -DE/DX   Delta X   Delta X   Delta X     New X
                                 (Linear)    (Quad)   (Total)
    R1        2.66549   0.01046  -0.00004   0.04807   0.04776   2.71324
    R2        2.57667  -0.00844   0.00012  -0.10200  -0.10210   2.47456
    R3        2.81368   0.00566   0.00005  -0.01509  -0.01504   2.79864
    R4        3.26196   0.00284  -0.00000   0.00931   0.00932   3.27128
    R5        2.79469   0.00636   0.00001   0.01130   0.01131   2.80600
    R6        3.32250   0.00837  -0.00012   0.10185   0.10203   3.42453
    R7        2.49362   0.00363  -0.00004   0.03131   0.03138   2.52500
    R8        2.57118  -0.00971  -0.00002  -0.00314  -0.00316   2.56801
    R9        1.91855  -0.00129  -0.00001   0.00503   0.00502   1.92357
   R10        1.92253  -0.00114  -0.00001   0.00328   0.00327   1.92580
   R11        2.37064  -0.00907   0.00005  -0.05018  -0.05013   2.32051
   R12        2.36303  -0.00039   0.00004  -0.03011  -0.03007   2.33296
   R13        2.36278   0.00449   0.00005  -0.02937  -0.02932   2.33346
   R14        2.36319  -0.00836   0.00006  -0.05723  -0.05717   2.30602
    A1        2.01604   0.00080  -0.00004   0.03191   0.03085   2.04689
    A2        2.16336  -0.00032   0.00004  -0.03011  -0.02964   2.13372
    A3        2.09930  -0.00052   0.00000  -0.00404  -0.00377   2.09554
    A4        1.93432  -0.00430  -0.00003   0.00206   0.00087   1.93520
    A5        2.23037   0.00757   0.00002   0.01264   0.01272   2.24309
    A6        2.11189  -0.00340   0.00001  -0.02053  -0.02070   2.09119
    A7        1.51906   0.00395   0.00006  -0.02244  -0.02246   1.49660
    A8        2.05170  -0.00795  -0.00003  -0.01427  -0.01522   2.03648
    A9        2.11120   0.00301   0.00001   0.00350   0.00273   2.11394
   A10        2.11994   0.00489   0.00001   0.00893   0.00816   2.12810
   A11        1.90068   0.00763   0.00002   0.00954   0.00871   1.90940
   A12        2.05343   0.00302  -0.00008   0.07692   0.06881   2.12224
   A13        1.98023   0.00190  -0.00006   0.06003   0.05180   2.03203
   A14        1.98766   0.00074  -0.00000   0.01767   0.00825   1.99591
   A15        2.05944  -0.00217  -0.00003   0.01658  -0.00482   2.05462
   A16        2.03856  -0.00066   0.00004  -0.02603  -0.04745   1.99112
   A17        2.18433   0.00333  -0.00002   0.02439   0.00154   2.18587
   A18        2.03241  -0.00189   0.00005  -0.03089  -0.06505   1.96735
   A19        2.08471   0.00160  -0.00006   0.05182   0.01803   2.10275
   A20        2.16412   0.00110   0.00000   0.00828  -0.02907   2.13505
    D1        0.07889  -0.00203   0.00011  -0.09364  -0.09469  -0.01580
    D2       -2.93889  -0.00045   0.00006  -0.03757  -0.03819  -2.97707
    D3       -2.96110  -0.00154   0.00008  -0.06842  -0.06904  -3.03014
    D4        0.30431   0.00004   0.00003  -0.01235  -0.01254   0.29176
    D5       -0.04911   0.00146  -0.00009   0.07079   0.07054   0.02142
    D6        2.99490   0.00099  -0.00006   0.04482   0.04379   3.03869
    D7        0.42916   0.00906   0.00009   0.33263   0.32578   0.75495
    D8       -2.64814  -0.00450  -0.00014  -0.15006  -0.14329  -2.79144
    D9       -2.60623   0.00951   0.00006   0.35713   0.35028  -2.25595
   D10        0.59965  -0.00405  -0.00017  -0.12557  -0.11880   0.48085
   D11       -0.06189   0.00137  -0.00009   0.06757   0.06562   0.00373
   D12        2.96559   0.00083  -0.00004   0.01848   0.01730   2.98289
   D13       -2.68202  -0.00453  -0.00012  -0.11835  -0.11484  -2.79686
   D14        0.41765   0.00794   0.00009   0.25173   0.24831   0.66595
   D15        0.59465  -0.00286  -0.00018  -0.05890  -0.05557   0.53908
   D16       -2.58887   0.00961   0.00004   0.31117   0.30758  -2.28129
   D17        0.03905  -0.00045   0.00004  -0.03040  -0.03090   0.00816
   D18       -3.13007  -0.00231   0.00012  -0.10550  -0.10516   3.04796
   D19       -0.00211  -0.00041   0.00002  -0.01650  -0.01605  -0.01817
   D20       -3.11603   0.00150  -0.00006   0.05909   0.05895  -3.05707
   D21        0.53059  -0.00242   0.00002  -0.05151  -0.05348   0.47711
   D22        2.91340   0.00467  -0.00013   0.14160   0.14369   3.05709
   D23       -2.63962  -0.00457   0.00010  -0.12994  -0.13205  -2.77167
   D24       -0.25681   0.00253  -0.00004   0.06317   0.06512  -0.19169
         Item               Value     Threshold  Converged?
 Maximum Force            0.010457     0.000450     NO 
 RMS     Force            0.004873     0.000300     NO 
 Maximum Displacement     0.452732     0.001800     NO 
 RMS     Displacement     0.119927     0.001200     NO 
 Predicted change in Energy=-1.516976D-02
 GradGradGradGradGradGradGradGradGradGradGradGradGradGradGradGradGradGrad

                          Input orientation:                          
 ---------------------------------------------------------------------
 Center     Atomic      Atomic             Coordinates (Angstroms)
 Number     Number       Type             X           Y           Z
 ---------------------------------------------------------------------
      1          6           0       -1.074614   -1.272153    0.068626
      2          6           0       -1.666110    0.032163   -0.033232
      3         16           0       -0.446681    1.258902   -0.102199
      4          6           0        0.741197   -0.105359    0.006181
      5          7           0        0.233133   -1.339265    0.074737
      6          7           0        2.077533    0.116728   -0.101450
      7          6           0       -3.091505    0.416213    0.126768
      8          8           0       -3.451370    1.488382   -0.351608
      9          8           0       -3.682179   -0.199945    1.018710
     10          6           0       -1.880922   -2.512772    0.005158
     11          8           0       -2.738904   -2.479096   -0.882254
     12          8           0       -1.439258   -3.561265    0.446426
     13          1           0        2.492667    1.008666    0.159804
     14          1           0        2.684453   -0.688559    0.045883
 ---------------------------------------------------------------------
                    Distance matrix (angstroms):
                    1          2          3          4          5
     1  C    0.000000
     2  C    1.435787   0.000000
     3  S    2.613374   1.731085   0.000000
     4  C    2.159277   2.411554   1.812183   0.000000
     5  N    1.309482   2.345122   2.691454   1.336171   0.000000
     6  N    3.448760   3.745220   2.770599   1.358934   2.356432
     7  C    2.630933   1.484872   2.785255   3.869907   3.760003
     8  O    3.666895   2.325745   3.023743   4.499515   4.664002
     9  O    2.975178   2.285824   3.721978   4.538768   4.185546
    10  C    1.480978   2.554273   4.036596   3.559656   2.418923
    11  O    2.265114   2.859745   4.453695   4.305234   3.323860
    12  O    2.348559   3.632390   4.951789   4.109926   2.805767
    13  H    4.235084   4.276242   2.961592   2.081417   3.259679
    14  H    3.804167   4.410567   3.690330   2.029272   2.536380
                    6          7          8          9         10
     6  N    0.000000
     7  C    5.182734   0.000000
     8  O    5.701998   1.227963   0.000000
     9  O    5.876166   1.234547   2.186662   0.000000
    10  C    4.753420   3.171633   4.313099   3.101771   0.000000
    11  O    5.526845   3.086303   4.065719   3.114154   1.234814
    12  O    5.118166   4.318846   5.494032   4.081259   1.220296
    13  H    1.017911   5.615609   5.985252   6.350368   5.617181
    14  H    1.019091   5.881221   6.522683   6.459036   4.916509
                   11         12         13         14
    11  O    0.000000
    12  O    2.150711   0.000000
    13  H    6.373358   6.035433   0.000000
    14  H    5.786213   5.041614   1.711821   0.000000
 Stoichiometry    C5H2N2O4S
 Framework group  C1[X(C5H2N2O4S)]
 Deg. of freedom    36
 Full point group                 C1      NOp   1
 Largest Abelian subgroup         C1      NOp   1
 Largest concise Abelian subgroup C1      NOp   1
                         Standard orientation:                         
 ---------------------------------------------------------------------
 Center     Atomic      Atomic             Coordinates (Angstroms)
 Number     Number       Type             X           Y           Z
 ---------------------------------------------------------------------
      1          6           0        0.088446    0.791220    0.049360
      2          6           0        0.207915   -0.636122   -0.050168
      3         16           0       -1.352269   -1.385803   -0.071616
      4          6           0       -2.013538    0.297115    0.048859
      5          7           0       -1.121307    1.290970    0.087964
      6          7           0       -3.349926    0.533333   -0.021647
      7          6           0        1.427564   -1.473228    0.078494
      8          8           0        1.395449   -2.605953   -0.394578
      9          8           0        2.215096   -1.085933    0.946769
     10          6           0        1.260191    1.691329   -0.051209
     11          8           0        2.032142    1.369638   -0.959709
     12          8           0        1.206271    2.828885    0.387174
     13          1           0       -4.031132   -0.167845    0.261989
     14          1           0       -3.649063    1.495596    0.130384
 ---------------------------------------------------------------------
 Rotational constants (GHZ):           1.0429218           0.8577942           0.5030049
 Standard basis: 6-31G(d) (6D, 7F)
 There are   188 symmetry adapted cartesian basis functions of A   symmetry.
 There are   188 symmetry adapted basis functions of A   symmetry.
   188 basis functions,   368 primitive gaussians,   188 cartesian basis functions
    47 alpha electrons       47 beta electrons
       nuclear repulsion energy       772.2565209928 Hartrees.
 NAtoms=   14 NActive=   14 NUniq=   14 SFac= 1.00D+00 NAtFMM=   60 NAOKFM=F Big=F
 Integral buffers will be    131072 words long.
 Raffenetti 2 integral format.
 Two-electron integral symmetry is turned on.
 Nuclear repulsion after empirical dispersion term =      772.2255135580 Hartrees.
 One-electron integrals computed using PRISM.
 NBasis=   188 RedAO= T EigKep=  1.68D-03  NBF=   188
 NBsUse=   188 1.00D-06 EigRej= -1.00D+00 NBFU=   188
 Initial guess from the checkpoint file:  "JID_2538.chk"
 B after Tr=     0.000000   -0.000000   -0.000000
         Rot=    0.999838   -0.008576   -0.001783   -0.015755 Ang=  -2.07 deg.
 ExpMin= 1.17D-01 ExpMax= 2.19D+04 ExpMxC= 3.30D+03 IAcc=2 IRadAn=         4 AccDes= 0.00D+00
 Harris functional with IExCor=  402 and IRadAn=       4 diagonalized for initial guess.
 HarFok:  IExCor=  402 AccDes= 0.00D+00 IRadAn=         4 IDoV= 1 UseB2=F ITyADJ=14
 ICtDFT=  3500011 ScaDFX=  1.000000  1.000000  1.000000  1.000000
 FoFCou: FMM=F IPFlag=           0 FMFlag=      100000 FMFlg1=           0
         NFxFlg=           0 DoJE=T BraDBF=F KetDBF=T FulRan=T
         wScrn=  0.000000 ICntrl=       500 IOpCl=  0 I1Cent=   200000004 NGrid=           0
         NMat0=    1 NMatS0=      1 NMatT0=    0 NMatD0=    1 NMtDS0=    0 NMtDT0=    0
 Petite list used in FoFCou.
 Keep R1 ints in memory in canonical form, NReq=161891310.
 Requested convergence on RMS density matrix=1.00D-08 within  32 cycles.
 Requested convergence on MAX density matrix=1.00D-06.
 Requested convergence on             energy=1.00D-06.
 No special actions if energy rises.
 Integral accuracy reduced to 1.0D-05 until final iterations.
 Failed to achieve initial convergence to 1.0D-08 in 10 cycles.
 Switch to full accuracy anyway.
 SCF Done:  E(RB3LYP) =  -1000.18750157     A.U. after   24 cycles
            NFock= 24  Conv=0.57D-08     -V/T= 2.0063
 QCSCF skips out because SCF is already converged.
 Calling FoFJK, ICntrl=      2127 FMM=F ISym2X=0 I1Cent= 0 IOpClX= 0 NMat=1 NMatS=1 NMatT=0.
 ***** Axes restored to original set *****
 -------------------------------------------------------------------
 Center     Atomic                   Forces (Hartrees/Bohr)
 Number     Number              X              Y              Z
 -------------------------------------------------------------------
      1        6          -0.030648008    0.009059947    0.005633517
      2        6          -0.002551399   -0.004781802   -0.002035095
      3       16           0.002842145   -0.016042148    0.002225386
      4        6           0.025184806    0.003898553   -0.005061047
      5        7           0.030768849    0.017287123   -0.000923023
      6        7          -0.013345070   -0.003207716    0.010825700
      7        6           0.015681605    0.019805547    0.015264655
      8        8          -0.008029528    0.017167464   -0.026254413
      9        8          -0.008591966   -0.027831061    0.015828589
     10        6           0.027421326   -0.005981222   -0.019388178
     11        8          -0.035770376    0.016916242   -0.022269672
     12        8           0.007036822   -0.024983973    0.033273225
     13        1          -0.005689651   -0.001518433   -0.004243066
     14        1          -0.004309556    0.000211481   -0.002876576
 -------------------------------------------------------------------
 Cartesian Forces:  Max     0.035770376 RMS     0.016682129

 GradGradGradGradGradGradGradGradGradGradGradGradGradGradGradGradGradGrad
 Berny optimization.
 Using GEDIIS/GDIIS optimizer.
 FormGI is forming the generalized inverse of G from B-inverse, IUseBI=4.
 Internal  Forces:  Max     0.041319904 RMS     0.012815971
 Search for a local minimum.
 Step number   3 out of a maximum of   68
 All quantities printed in internal units (Hartrees-Bohrs-Radians)
 Mixed Optimization -- RFO/linear search
 Update second derivatives using D2CorX and points    1    3    2
 DE=  5.35D-03 DEPred=-1.52D-02 R=-3.52D-01
 Trust test=-3.52D-01 RLast= 7.58D-01 DXMaxT set to 2.52D-01
 ITU= -1  1  0
 Use linear search instead of GDIIS.
     Eigenvalues ---    0.00589   0.00943   0.01435   0.01603   0.01799
     Eigenvalues ---    0.02011   0.02146   0.02339   0.02393   0.03155
     Eigenvalues ---    0.09115   0.15932   0.16018   0.20445   0.24747
     Eigenvalues ---    0.24869   0.24909   0.24919   0.24997   0.25000
     Eigenvalues ---    0.25197   0.27099   0.30873   0.32444   0.32734
     Eigenvalues ---    0.34535   0.41579   0.43789   0.45421   0.46026
     Eigenvalues ---    0.54892   0.63291   0.71744   0.72829   0.75749
     Eigenvalues ---    0.81457
 RFO step:  Lambda=-9.05482173D-03 EMin= 5.88523657D-03
 Quartic linear search produced a step of -0.59693.
 Iteration  1 RMS(Cart)=  0.05949366 RMS(Int)=  0.01898778
 Iteration  2 RMS(Cart)=  0.02324504 RMS(Int)=  0.00236859
 Iteration  3 RMS(Cart)=  0.00096778 RMS(Int)=  0.00214540
 Iteration  4 RMS(Cart)=  0.00000059 RMS(Int)=  0.00214540
 Variable       Old X    -DE/DX   Delta X   Delta X   Delta X     New X
                                 (Linear)    (Quad)   (Total)
    R1        2.71324  -0.00190  -0.02851   0.02557  -0.00269   2.71056
    R2        2.47456   0.03219   0.06095  -0.00508   0.05596   2.53052
    R3        2.79864   0.01284   0.00898   0.02729   0.03627   2.83491
    R4        3.27128  -0.00259  -0.00556   0.00604   0.00057   3.27185
    R5        2.80600   0.00379  -0.00675   0.02110   0.01435   2.82035
    R6        3.42453  -0.00729  -0.06091   0.02767  -0.03346   3.39106
    R7        2.52500  -0.00873  -0.01873   0.00463  -0.01428   2.51072
    R8        2.56801  -0.02399   0.00189  -0.03132  -0.02943   2.53859
    R9        1.92357  -0.00474  -0.00300  -0.00525  -0.00825   1.91532
   R10        1.92580  -0.00315  -0.00195  -0.00408  -0.00603   1.91977
   R11        2.32051   0.02757   0.02992  -0.00481   0.02512   2.34563
   R12        2.33296   0.02944   0.01795   0.00881   0.02676   2.35971
   R13        2.33346   0.04132   0.01750   0.02044   0.03794   2.37141
   R14        2.30602   0.03605   0.03412  -0.00084   0.03329   2.33931
    A1        2.04689  -0.00637  -0.01841  -0.00022  -0.01799   2.02890
    A2        2.13372  -0.00347   0.01769  -0.01290   0.00449   2.13821
    A3        2.09554   0.00979   0.00225   0.00997   0.01200   2.10754
    A4        1.93520  -0.00506  -0.00052  -0.02101  -0.02067   1.91452
    A5        2.24309   0.00227  -0.00759   0.02694   0.01914   2.26223
    A6        2.09119   0.00277   0.01236  -0.01346  -0.00110   2.09009
    A7        1.49660   0.01277   0.01341   0.02669   0.04028   1.53688
    A8        2.03648  -0.00610   0.00909  -0.03964  -0.03015   2.00632
    A9        2.11394   0.00301  -0.00163   0.01408   0.01298   2.12691
   A10        2.12810   0.00313  -0.00487   0.02114   0.01680   2.14490
   A11        1.90940   0.00477  -0.00520   0.03345   0.02855   1.93794
   A12        2.12224  -0.00260  -0.04108   0.03409  -0.00292   2.11933
   A13        2.03203  -0.00123  -0.03092   0.02924   0.00243   2.03447
   A14        1.99591   0.00496  -0.00492   0.03275   0.03242   2.02833
   A15        2.05462   0.00388   0.00288  -0.00684   0.00366   2.05828
   A16        1.99112  -0.01052   0.02832  -0.02980   0.00616   1.99727
   A17        2.18587   0.01397  -0.00092   0.02619   0.03299   2.21886
   A18        1.96735  -0.01043   0.03883  -0.02712   0.01466   1.98201
   A19        2.10275   0.00693  -0.01077   0.02272   0.01490   2.11765
   A20        2.13505   0.01541   0.01735   0.02606   0.04637   2.18142
    D1       -0.01580   0.00127   0.05652  -0.05868  -0.00138  -0.01717
    D2       -2.97707   0.00124   0.02280  -0.00733   0.01598  -2.96109
    D3       -3.03014   0.00108   0.04121  -0.03106   0.01053  -3.01961
    D4        0.29176   0.00104   0.00749   0.02030   0.02790   0.31966
    D5        0.02142  -0.00096  -0.04210   0.04195  -0.00012   0.02130
    D6        3.03869  -0.00175  -0.02614   0.01323  -0.01233   3.02636
    D7        0.75495  -0.01443  -0.19447   0.14411  -0.05029   0.70466
    D8       -2.79144   0.01825   0.08554   0.20279   0.28821  -2.50323
    D9       -2.25595  -0.01346  -0.20909   0.17326  -0.03571  -2.29166
   D10        0.48085   0.01923   0.07092   0.23194   0.30279   0.78364
   D11        0.00373  -0.00063  -0.03917   0.04048   0.00239   0.00612
   D12        2.98289  -0.00056  -0.01033  -0.00091  -0.01033   2.97256
   D13       -2.79686   0.01445   0.06855   0.11632   0.18429  -2.61257
   D14        0.66595  -0.01027  -0.14822   0.14260  -0.00519   0.66077
   D15        0.53908   0.01511   0.03317   0.17183   0.20457   0.74365
   D16       -2.28129  -0.00961  -0.18361   0.19811   0.01509  -2.26620
   D17        0.00816   0.00022   0.01844  -0.02158  -0.00278   0.00537
   D18        3.04796   0.00087   0.06277  -0.06854  -0.00585   3.04210
   D19       -0.01817   0.00043   0.00958  -0.00707   0.00223  -0.01593
   D20       -3.05707  -0.00021  -0.03519   0.04079   0.00562  -3.05145
   D21        0.47711  -0.00240   0.03192  -0.07438  -0.04157   0.43554
   D22        3.05709   0.00137  -0.08577   0.12107   0.03436   3.09144
   D23       -2.77167  -0.00226   0.07882  -0.12741  -0.04765  -2.81931
   D24       -0.19169   0.00151  -0.03887   0.06804   0.02828  -0.16341
         Item               Value     Threshold  Converged?
 Maximum Force            0.041320     0.000450     NO 
 RMS     Force            0.012816     0.000300     NO 
 Maximum Displacement     0.274625     0.001800     NO 
 RMS     Displacement     0.074045     0.001200     NO 
 Predicted change in Energy=-9.982884D-03
 GradGradGradGradGradGradGradGradGradGradGradGradGradGradGradGradGradGrad

                          Input orientation:                          
 ---------------------------------------------------------------------
 Center     Atomic      Atomic             Coordinates (Angstroms)
 Number     Number       Type             X           Y           Z
 ---------------------------------------------------------------------
      1          6           0       -1.064028   -1.279576    0.041249
      2          6           0       -1.659884    0.024079   -0.012058
      3         16           0       -0.419665    1.231987   -0.034810
      4          6           0        0.788023   -0.094250    0.017380
      5          7           0        0.274475   -1.319359    0.041861
      6          7           0        2.106103    0.142299   -0.089071
      7          6           0       -3.083868    0.428110    0.178946
      8          8           0       -3.492240    1.426698   -0.434866
      9          8           0       -3.687093   -0.209651    1.067005
     10          6           0       -1.868859   -2.539582   -0.081795
     11          8           0       -2.775843   -2.473022   -0.946497
     12          8           0       -1.584583   -3.551445    0.572228
     13          1           0        2.504471    1.038679    0.166034
     14          1           0        2.720431   -0.662328   -0.004056
 ---------------------------------------------------------------------
                    Distance matrix (angstroms):
                    1          2          3          4          5
     1  C    0.000000
     2  C    1.434365   0.000000
     3  S    2.594019   1.731388   0.000000
     4  C    2.199013   2.450943   1.794474   0.000000
     5  N    1.339094   2.355733   2.645198   1.328617   0.000000
     6  N    3.476843   3.768629   2.751338   1.343362   2.347008
     7  C    2.648566   1.492465   2.791037   3.910307   3.788259
     8  O    3.666990   2.345982   3.104622   4.564916   4.685748
     9  O    3.012870   2.308372   3.737433   4.598010   4.239857
    10  C    1.500170   2.573110   4.040682   3.612273   2.469437
    11  O    2.308737   2.890338   4.484400   4.391897   3.407672
    12  O    2.390462   3.623732   4.960519   4.229576   2.952896
    13  H    4.257236   4.289870   2.937392   2.061994   3.247867
    14  H    3.834733   4.433778   3.667367   2.014292   2.533081
                    6          7          8          9         10
     6  N    0.000000
     7  C    5.204739   0.000000
     8  O    5.754189   1.241254   0.000000
     9  O    5.917896   1.248707   2.229624   0.000000
    10  C    4.795087   3.217364   4.300163   3.170851   0.000000
    11  O    5.604327   3.126991   3.997851   3.163450   1.254894
    12  O    5.263290   4.270759   5.425431   3.979062   1.237911
    13  H    1.013545   5.621609   6.039220   6.380089   5.656093
    14  H    1.015900   5.908674   6.568631   6.512178   4.959004
                   11         12         13         14
    11  O    0.000000
    12  O    2.211022   0.000000
    13  H    6.438283   6.160730   0.000000
    14  H    5.863091   5.216537   1.723077   0.000000
 Stoichiometry    C5H2N2O4S
 Framework group  C1[X(C5H2N2O4S)]
 Deg. of freedom    36
 Full point group                 C1      NOp   1
 Largest Abelian subgroup         C1      NOp   1
 Largest concise Abelian subgroup C1      NOp   1
                         Standard orientation:                         
 ---------------------------------------------------------------------
 Center     Atomic      Atomic             Coordinates (Angstroms)
 Number     Number       Type             X           Y           Z
 ---------------------------------------------------------------------
      1          6           0        0.087901    0.795265    0.013584
      2          6           0        0.188540   -0.634636   -0.037989
      3         16           0       -1.396110   -1.332021   -0.022478
      4          6           0       -2.061855    0.333207    0.040252
      5          7           0       -1.151676    1.301090    0.041152
      6          7           0       -3.381449    0.572734   -0.036684
      7          6           0        1.385104   -1.511041    0.128146
      8          8           0        1.404076   -2.591135   -0.483203
      9          8           0        2.193519   -1.122285    0.996825
     10          6           0        1.279701    1.693452   -0.139334
     11          8           0        2.086006    1.311154   -1.021648
     12          8           0        1.382511    2.742654    0.509535
     13          1           0       -4.062334   -0.126750    0.236065
     14          1           0       -3.673276    1.541740    0.052290
 ---------------------------------------------------------------------
 Rotational constants (GHZ):           1.0546061           0.8216937           0.4993183
 Standard basis: 6-31G(d) (6D, 7F)
 There are   188 symmetry adapted cartesian basis functions of A   symmetry.
 There are   188 symmetry adapted basis functions of A   symmetry.
   188 basis functions,   368 primitive gaussians,   188 cartesian basis functions
    47 alpha electrons       47 beta electrons
       nuclear repulsion energy       766.9071147269 Hartrees.
 NAtoms=   14 NActive=   14 NUniq=   14 SFac= 1.00D+00 NAtFMM=   60 NAOKFM=F Big=F
 Integral buffers will be    131072 words long.
 Raffenetti 2 integral format.
 Two-electron integral symmetry is turned on.
 Nuclear repulsion after empirical dispersion term =      766.8762150492 Hartrees.
 One-electron integrals computed using PRISM.
 NBasis=   188 RedAO= T EigKep=  1.64D-03  NBF=   188
 NBsUse=   188 1.00D-06 EigRej= -1.00D+00 NBFU=   188
 Lowest energy guess from the checkpoint file:  "JID_2538.chk"
 B after Tr=     0.000000   -0.000000    0.000000
         Rot=    0.999935   -0.010071   -0.001782   -0.004987 Ang=  -1.30 deg.
 B after Tr=    -0.000000   -0.000000    0.000000
         Rot=    0.999942   -0.000930    0.000072    0.010761 Ang=  -1.24 deg.
 Keep R1 ints in memory in canonical form, NReq=161891310.
 Requested convergence on RMS density matrix=1.00D-08 within  32 cycles.
 Requested convergence on MAX density matrix=1.00D-06.
 Requested convergence on             energy=1.00D-06.
 No special actions if energy rises.
 Integral accuracy reduced to 1.0D-05 until final iterations.
 EnCoef did     8 forward-backward iterations
 Failed to achieve initial convergence to 1.0D-08 in 10 cycles.
 Switch to full accuracy anyway.
 SCF Done:  E(RB3LYP) =  -1000.20355837     A.U. after   22 cycles
            NFock= 22  Conv=0.63D-08     -V/T= 2.0066
 QCSCF skips out because SCF is already converged.
 Calling FoFJK, ICntrl=      2127 FMM=F ISym2X=0 I1Cent= 0 IOpClX= 0 NMat=1 NMatS=1 NMatT=0.
 ***** Axes restored to original set *****
 -------------------------------------------------------------------
 Center     Atomic                   Forces (Hartrees/Bohr)
 Number     Number              X              Y              Z
 -------------------------------------------------------------------
      1        6          -0.000174327   -0.006703733   -0.006475287
      2        6          -0.000470349    0.002280046    0.005747022
      3       16          -0.000330823   -0.001065797    0.001146091
      4        6           0.002645691   -0.000644867   -0.004406102
      5        7           0.004535766    0.003771537   -0.000109069
      6        7          -0.006398128   -0.002510433    0.007814927
      7        6          -0.004993335    0.008486425    0.003361086
      8        8           0.001719940   -0.001942940   -0.006519638
      9        8           0.006102319   -0.005676182    0.001760269
     10        6          -0.003183718   -0.008322254    0.002428788
     11        8           0.001988247    0.008653978   -0.004321600
     12        8           0.002162989    0.003775050    0.004121628
     13        1          -0.002218138    0.000207034   -0.002980669
     14        1          -0.001386134   -0.000307864   -0.001567448
 -------------------------------------------------------------------
 Cartesian Forces:  Max     0.008653978 RMS     0.004267694

 GradGradGradGradGradGradGradGradGradGradGradGradGradGradGradGradGradGrad
 Berny optimization.
 Using GEDIIS/GDIIS optimizer.
 FormGI is forming the generalized inverse of G from B-inverse, IUseBI=4.
 Internal  Forces:  Max     0.011664995 RMS     0.003844501
 Search for a local minimum.
 Step number   4 out of a maximum of   68
 All quantities printed in internal units (Hartrees-Bohrs-Radians)
 Mixed Optimization -- RFO/linear search
 Update second derivatives using D2CorX and points    3    2    4
 DE= -1.07D-02 DEPred=-9.98D-03 R= 1.07D+00
 TightC=F SS=  1.41D+00  RLast= 7.61D-01 DXNew= 4.2426D-01 2.2835D+00
 Trust test= 1.07D+00 RLast= 7.61D-01 DXMaxT set to 4.24D-01
 ITU=  1 -1  1  0
 Use linear search instead of GDIIS.
     Eigenvalues ---    0.00375   0.00803   0.01024   0.01448   0.01690
     Eigenvalues ---    0.02038   0.02152   0.02320   0.02496   0.02810
     Eigenvalues ---    0.08227   0.15951   0.16053   0.18181   0.24671
     Eigenvalues ---    0.24839   0.24886   0.24906   0.24999   0.25016
     Eigenvalues ---    0.25214   0.29465   0.32224   0.32662   0.33717
     Eigenvalues ---    0.39497   0.41802   0.44561   0.45435   0.45991
     Eigenvalues ---    0.53548   0.63495   0.71804   0.72885   0.75759
     Eigenvalues ---    0.81337
 RFO step:  Lambda=-8.38375609D-03 EMin= 3.75126260D-03
 Quartic linear search produced a step of  0.26578.
 Iteration  1 RMS(Cart)=  0.10894000 RMS(Int)=  0.03297198
 Iteration  2 RMS(Cart)=  0.04257929 RMS(Int)=  0.00438047
 Iteration  3 RMS(Cart)=  0.00235008 RMS(Int)=  0.00348142
 Iteration  4 RMS(Cart)=  0.00000575 RMS(Int)=  0.00348142
 Iteration  5 RMS(Cart)=  0.00000003 RMS(Int)=  0.00348142
 Variable       Old X    -DE/DX   Delta X   Delta X   Delta X     New X
                                 (Linear)    (Quad)   (Total)
    R1        2.71056   0.00084   0.01198   0.01953   0.03137   2.74193
    R2        2.53052  -0.00050  -0.01226  -0.01348  -0.02578   2.50474
    R3        2.83491  -0.00415   0.00564  -0.00187   0.00377   2.83868
    R4        3.27185  -0.00346   0.00263  -0.00687  -0.00431   3.26754
    R5        2.82035  -0.00264   0.00682   0.00362   0.01044   2.83079
    R6        3.39106  -0.00079   0.01822   0.01897   0.03732   3.42839
    R7        2.51072  -0.00390   0.00455  -0.00183   0.00282   2.51355
    R8        2.53859  -0.01053  -0.00866  -0.03738  -0.04604   2.49254
    R9        1.91532  -0.00144  -0.00086  -0.00573  -0.00659   1.90873
   R10        1.91977  -0.00073  -0.00073  -0.00362  -0.00435   1.91542
   R11        2.34563   0.00110  -0.00665  -0.00579  -0.01244   2.33319
   R12        2.35971   0.00120  -0.00088   0.00323   0.00235   2.36206
   R13        2.37141   0.00200   0.00229   0.01036   0.01265   2.38405
   R14        2.33931  -0.00041  -0.00635  -0.00681  -0.01316   2.32615
    A1        2.02890  -0.00029   0.00342   0.00207   0.00514   2.03404
    A2        2.13821  -0.00572  -0.00668  -0.03128  -0.03790   2.10031
    A3        2.10754   0.00604   0.00219   0.03153   0.03382   2.14136
    A4        1.91452   0.00150  -0.00526  -0.00228  -0.00804   1.90648
    A5        2.26223  -0.00353   0.00847   0.00176   0.01012   2.27235
    A6        2.09009   0.00205  -0.00579   0.00210  -0.00366   2.08642
    A7        1.53688  -0.00248   0.00473   0.00023   0.00488   1.54176
    A8        2.00632   0.00412  -0.01206  -0.00376  -0.01596   1.99037
    A9        2.12691  -0.00154   0.00418   0.00252   0.00639   2.13331
   A10        2.14490  -0.00250   0.00663   0.00269   0.00902   2.15392
   A11        1.93794  -0.00284   0.00990   0.00433   0.01414   1.95208
   A12        2.11933  -0.00074   0.01751   0.01959   0.02444   2.14377
   A13        2.03447  -0.00020   0.01441   0.01943   0.02114   2.05561
   A14        2.02833   0.00209   0.01081   0.03386   0.03164   2.05996
   A15        2.05828   0.00054  -0.00031   0.00781   0.00264   2.06092
   A16        1.99727  -0.00990  -0.01097  -0.04888  -0.06471   1.93256
   A17        2.21886   0.00999   0.00918   0.06638   0.07070   2.28955
   A18        1.98201  -0.01108  -0.01339  -0.06938  -0.08928   1.89273
   A19        2.11765  -0.00057   0.00875   0.00390   0.00620   2.12385
   A20        2.18142   0.01166   0.00460   0.05603   0.05388   2.23531
    D1       -0.01717   0.00110  -0.02553   0.03561   0.01015  -0.00702
    D2       -2.96109   0.00054  -0.00590   0.02604   0.02034  -2.94075
    D3       -3.01961   0.00029  -0.01555   0.01408  -0.00139  -3.02099
    D4        0.31966  -0.00027   0.00408   0.00450   0.00880   0.32846
    D5        0.02130  -0.00089   0.01872  -0.02919  -0.01044   0.01087
    D6        3.02636  -0.00109   0.00836  -0.01338  -0.00479   3.02157
    D7        0.70466   0.00197   0.07322   0.25604   0.32845   1.03311
    D8       -2.50323   0.00270   0.03851   0.10920   0.14859  -2.35464
    D9       -2.29166   0.00166   0.08360   0.23615   0.31888  -1.97278
   D10        0.78364   0.00240   0.04890   0.08930   0.13902   0.92266
   D11        0.00612  -0.00075   0.01808  -0.02308  -0.00508   0.00104
   D12        2.97256  -0.00098   0.00185  -0.01457  -0.01212   2.96044
   D13       -2.61257   0.00545   0.01846   0.27372   0.29209  -2.32048
   D14        0.66077  -0.00010   0.06462   0.07949   0.14409   0.80486
   D15        0.74365   0.00499   0.03960   0.26374   0.30335   1.04699
   D16       -2.26620  -0.00056   0.08576   0.06950   0.15535  -2.11085
   D17        0.00537   0.00036  -0.00895   0.00867  -0.00051   0.00486
   D18        3.04210   0.00102  -0.02950   0.02373  -0.00553   3.03657
   D19       -0.01593   0.00022  -0.00367   0.00975   0.00621  -0.00972
   D20       -3.05145  -0.00052   0.01716  -0.00546   0.01150  -3.03995
   D21        0.43554  -0.00272  -0.02526  -0.11542  -0.14178   0.29376
   D22        3.09144   0.00046   0.04732   0.05736   0.10616  -3.08558
   D23       -2.81931  -0.00161  -0.04776  -0.09955  -0.14879  -2.96810
   D24       -0.16341   0.00157   0.02482   0.07323   0.09916  -0.06426
         Item               Value     Threshold  Converged?
 Maximum Force            0.011665     0.000450     NO 
 RMS     Force            0.003845     0.000300     NO 
 Maximum Displacement     0.496731     0.001800     NO 
 RMS     Displacement     0.140006     0.001200     NO 
 Predicted change in Energy=-7.013596D-03
 GradGradGradGradGradGradGradGradGradGradGradGradGradGradGradGradGradGrad

[...]
    39    C    2  pz     Ryd( 5p)     0.00007       2.86764
    40    C    2  dxy    Ryd( 3d)     0.00088       2.35738
    41    C    2  dxz    Ryd( 3d)     0.00146       1.84954
    42    C    2  dyz    Ryd( 3d)     0.00077       1.77855
    43    C    2  dx2y2  Ryd( 3d)     0.00089       2.37313
    44    C    2  dz2    Ryd( 3d)     0.00092       2.08153
 
    45    S    3  S      Cor( 1S)     1.00000     -87.59014
    46    S    3  S      Cor( 2S)     0.99964      -8.75034
    47    S    3  S      Val( 3S)     0.84262      -0.63869
    48    S    3  S      Ryd( 5S)     0.00162       1.83481
    49    S    3  S      Ryd( 4S)     0.00073       1.70136
    50    S    3  S      Ryd( 6S)     0.00004      11.93241
    51    S    3  S      Ryd( 7S)     0.00000     182.81834
    52    S    3  px     Cor( 2p)     0.99993      -5.80307
    53    S    3  px     Val( 3p)     0.47842      -0.07497
    54    S    3  px     Ryd( 5p)     0.00318       0.90148
    55    S    3  px     Ryd( 4p)     0.00072       0.43927
    56    S    3  px     Ryd( 6p)     0.00012       1.40004
    57    S    3  px     Ryd( 7p)     0.00000      17.01188
    58    S    3  py     Cor( 2p)     0.99994      -5.80198
    59    S    3  py     Val( 3p)     0.62772      -0.09260
    60    S    3  py     Ryd( 5p)     0.00130       0.86129
    61    S    3  py     Ryd( 4p)     0.00019       0.46320
    62    S    3  py     Ryd( 6p)     0.00018       1.75520
    63    S    3  py     Ryd( 7p)     0.00000      16.92502
    64    S    3  pz     Cor( 2p)     0.99999      -5.79787
    65    S    3  pz     Val( 3p)     0.88929      -0.14058
    66    S    3  pz     Ryd( 5p)     0.00233       0.53508
    67    S    3  pz     Ryd( 4p)     0.00018       0.30870
    68    S    3  pz     Ryd( 6p)     0.00009       1.79587
    69    S    3  pz     Ryd( 7p)     0.00000      17.00111
    70    S    3  dxy    Ryd( 3d)     0.00244       1.36200
    71    S    3  dxz    Ryd( 3d)     0.00078       1.04391
    72    S    3  dyz    Ryd( 3d)     0.00114       0.99037
    73    S    3  dx2y2  Ryd( 3d)     0.00279       1.40315
    74    S    3  dz2    Ryd( 3d)     0.00136       1.32536
 
    75    C    4  S      Cor( 1S)     0.99960     -10.04153
    76    C    4  S      Val( 2S)     0.42544      -0.08519
    77    C    4  S      Ryd( 4S)     0.00313       1.52213
    78    C    4  S      Ryd( 3S)     0.00144       1.09478
    79    C    4  S      Ryd( 5S)     0.00016      17.30742
    80    C    4  px     Val( 2p)     0.43364       0.06109
    81    C    4  px     Ryd( 4p)     0.00332       1.07942
    82    C    4  px     Ryd( 5p)     0.00075       1.98983
    83    C    4  px     Ryd( 3p)     0.00014       0.82465
    84    C    4  py     Val( 2p)     0.47892      -0.00461
    85    C    4  py     Ryd( 4p)     0.00654       0.99684
    86    C    4  py     Ryd( 5p)     0.00092       1.57225
    87    C    4  py     Ryd( 3p)     0.00020       0.78850
    88    C    4  pz     Val( 2p)     0.42047      -0.02336
    89    C    4  pz     Ryd( 3p)     0.00102       0.73091
    90    C    4  pz     Ryd( 4p)     0.00025       1.28488
    91    C    4  pz     Ryd( 5p)     0.00014       1.44267
    92    C    4  dxy    Ryd( 3d)     0.00060       2.62598
    93    C    4  dxz    Ryd( 3d)     0.00178       1.73922
    94    C    4  dyz    Ryd( 3d)     0.00089       1.62416
    95    C    4  dx2y2  Ryd( 3d)     0.00156       2.40044
    96    C    4  dz2    Ryd( 3d)     0.00049       2.08262
 
    97    N    5  S      Cor( 1S)     0.99959     -13.99445
    98    N    5  S      Val( 2S)     0.68228      -0.40221
    99    N    5  S      Ryd( 4S)     0.00096       1.62369
   100    N    5  S      Ryd( 3S)     0.00020       1.43960
   101    N    5  S      Ryd( 5S)     0.00000      35.42780
   102    N    5  px     Val( 2p)     0.60827      -0.06579
   103    N    5  px     Ryd( 4p)     0.00186       1.15003
   104    N    5  px     Ryd( 3p)     0.00054       1.02518
   105    N    5  px     Ryd( 5p)     0.00003       4.26561
   106    N    5  py     Val( 2p)     0.80686      -0.12113
   107    N    5  py     Ryd( 3p)     0.00238       0.80265
   108    N    5  py     Ryd( 4p)     0.00040       0.90301
   109    N    5  py     Ryd( 5p)     0.00003       4.10563
   110    N    5  pz     Val( 2p)     0.69790      -0.07882
   111    N    5  pz     Ryd( 3p)     0.00162       0.67051
   112    N    5  pz     Ryd( 4p)     0.00011       0.88119
   113    N    5  pz     Ryd( 5p)     0.00001       3.97261
   114    N    5  dxy    Ryd( 3d)     0.00086       3.15724
   115    N    5  dxz    Ryd( 3d)     0.00011       2.39831
   116    N    5  dyz    Ryd( 3d)     0.00107       2.33007
   117    N    5  dx2y2  Ryd( 3d)     0.00062       2.82326
   118    N    5  dz2    Ryd( 3d)     0.00039       2.84644
 
   119    N    6  S      Cor( 1S)     0.99967     -14.05725
   120    N    6  S      Val( 2S)     0.64654      -0.46413
   121    N    6  S      Ryd( 4S)     0.00092       1.38071
   122    N    6  S      Ryd( 3S)     0.00030       1.18662
   123    N    6  S      Ryd( 5S)     0.00000      34.85801
   124    N    6  px     Val( 2p)     0.66373      -0.14259
   125    N    6  px     Ryd( 3p)     0.00194       0.69662
   126    N    6  px     Ryd( 4p)     0.00067       0.89284
   127    N    6  px     Ryd( 5p)     0.00002       4.45967
   128    N    6  py     Val( 2p)     0.70002      -0.12280
   129    N    6  py     Ryd( 3p)     0.00226       0.74426
   130    N    6  py     Ryd( 4p)     0.00014       0.95277
   131    N    6  py     Ryd( 5p)     0.00000       4.43263
   132    N    6  pz     Val( 2p)     0.85185      -0.15357
   133    N    6  pz     Ryd( 3p)     0.00302       0.37334
   134    N    6  pz     Ryd( 4p)     0.00034       0.90006
   135    N    6  pz     Ryd( 5p)     0.00000       3.95106
   136    N    6  dxy    Ryd( 3d)     0.00025       2.98716
   137    N    6  dxz    Ryd( 3d)     0.00027       2.38327
   138    N    6  dyz    Ryd( 3d)     0.00013       2.36945
   139    N    6  dx2y2  Ryd( 3d)     0.00047       3.04178
   140    N    6  dz2    Ryd( 3d)     0.00034       2.70432
 
   141    C    7  S      Cor( 1S)     0.99952     -10.08540
   142    C    7  S      Val( 2S)     0.35410      -0.01669
   143    C    7  S      Ryd( 3S)     0.00606       0.90487
   144    C    7  S      Ryd( 4S)     0.00092       1.01715
   145    C    7  S      Ryd( 5S)     0.00005      21.97680
   146    C    7  px     Val( 2p)     0.43177       0.03483
   147    C    7  px     Ryd( 4p)     0.00477       1.39448
   148    C    7  px     Ryd( 5p)     0.00010       2.23598
   149    C    7  px     Ryd( 3p)     0.00006       0.62225
   150    C    7  py     Val( 2p)     0.40069       0.00249
   151    C    7  py     Ryd( 4p)     0.00350       1.15640
   152    C    7  py     Ryd( 5p)     0.00012       2.40044
   153    C    7  py     Ryd( 3p)     0.00005       0.60759
   154    C    7  pz     Val( 2p)     0.38495       0.06294
   155    C    7  pz     Ryd( 4p)     0.00475       1.07935
   156    C    7  pz     Ryd( 5p)     0.00014       2.68088
   157    C    7  pz     Ryd( 3p)     0.00014       0.55773
   158    C    7  dxy    Ryd( 3d)     0.00082       2.39468
   159    C    7  dxz    Ryd( 3d)     0.00206       2.18397
   160    C    7  dyz    Ryd( 3d)     0.00219       1.93687
   161    C    7  dx2y2  Ryd( 3d)     0.00142       1.98947
   162    C    7  dz2    Ryd( 3d)     0.00256       2.32238
 
   163    O    8  S      Cor( 1S)     0.99986     -18.75259
   164    O    8  S      Val( 2S)     0.84917      -0.79464
   165    O    8  S      Ryd( 4S)     0.00078       1.93237
   166    O    8  S      Ryd( 3S)     0.00005       0.93749
   167    O    8  S      Ryd( 5S)     0.00000      49.81032
   168    O    8  px     Val( 2p)     0.79253      -0.18559
   169    O    8  px     Ryd( 4p)     0.00061       0.98509
   170    O    8  px     Ryd( 3p)     0.00003       0.89207
   171    O    8  px     Ryd( 5p)     0.00005       5.32030
   172    O    8  py     Val( 2p)     0.75888      -0.17349
   173    O    8  py     Ryd( 3p)     0.00050       0.92139
   174    O    8  py     Ryd( 4p)     0.00006       0.97717
   175    O    8  py     Ryd( 5p)     0.00003       5.21768
   176    O    8  pz     Val( 2p)     0.86849      -0.18103
   177    O    8  pz     Ryd( 4p)     0.00094       0.91653
   178    O    8  pz     Ryd( 3p)     0.00006       0.89876
   179    O    8  pz     Ryd( 5p)     0.00002       5.22854
   180    O    8  dxy    Ryd( 3d)     0.00055       3.38306
   181    O    8  dxz    Ryd( 3d)     0.00062       3.41726
   182    O    8  dyz    Ryd( 3d)     0.00043       3.21736
   183    O    8  dx2y2  Ryd( 3d)     0.00066       3.18971
   184    O    8  dz2    Ryd( 3d)     0.00051       3.18011
 
   185    O    9  S      Cor( 1S)     0.99991     -18.83712
   186    O    9  S      Val( 2S)     0.86599      -0.83120
   187    O    9  S      Ryd( 4S)     0.00215       1.47828
   188    O    9  S      Ryd( 3S)     0.00017       1.08707
   189    O    9  S      Ryd( 5S)     0.00000      49.79109
   190    O    9  px     Val( 2p)     0.75995      -0.18972
   191    O    9  px     Ryd( 3p)     0.00125       0.74391
   192    O    9  px     Ryd( 4p)     0.00015       1.16144
   193    O    9  px     Ryd( 5p)     0.00002       4.92534
   194    O    9  py     Val( 2p)     0.83304      -0.20478
   195    O    9  py     Ryd( 3p)     0.00126       0.68647
   196    O    9  py     Ryd( 4p)     0.00012       1.16022
   197    O    9  py     Ryd( 5p)     0.00002       4.85338
   198    O    9  pz     Val( 2p)     0.76591      -0.23252
   199    O    9  pz     Ryd( 3p)     0.00046       0.77126
   200    O    9  pz     Ryd( 4p)     0.00024       1.10141
   201    O    9  pz     Ryd( 5p)     0.00015       5.12760
   202    O    9  dxy    Ryd( 3d)     0.00006       3.07581
   203    O    9  dxz    Ryd( 3d)     0.00085       3.34941
   204    O    9  dyz    Ryd( 3d)     0.00083       3.20940
   205    O    9  dx2y2  Ryd( 3d)     0.00003       3.02623
   206    O    9  dz2    Ryd( 3d)     0.00073       3.54458
 
   207    C   10  S      Cor( 1S)     0.99957     -10.07845
   208    C   10  S      Val( 2S)     0.35950      -0.01556
   209    C   10  S      Ryd( 3S)     0.00642       0.97289
   210    C   10  S      Ryd( 4S)     0.00078       1.14574
   211    C   10  S      Ryd( 5S)     0.00006      21.65707
   212    C   10  px     Val( 2p)     0.42808       0.04256
   213    C   10  px     Ryd( 4p)     0.00451       1.40261
   214    C   10  px     Ryd( 5p)     0.00010       1.81296
   215    C   10  px     Ryd( 3p)     0.00003       1.03796
   216    C   10  py     Val( 2p)     0.40251       0.01832
   217    C   10  py     Ryd( 4p)     0.00364       1.22568
   218    C   10  py     Ryd( 5p)     0.00013       1.94667
   219    C   10  py     Ryd( 3p)     0.00002       0.98081
   220    C   10  pz     Val( 2p)     0.38714       0.07502
   221    C   10  pz     Ryd( 4p)     0.00495       1.13270
   222    C   10  pz     Ryd( 5p)     0.00013       2.26294
   223    C   10  pz     Ryd( 3p)     0.00014       0.94416
   224    C   10  dxy    Ryd( 3d)     0.00075       2.47988
   225    C   10  dxz    Ryd( 3d)     0.00212       2.16872
   226    C   10  dyz    Ryd( 3d)     0.00227       1.99140
   227    C   10  dx2y2  Ryd( 3d)     0.00136       2.02875
   228    C   10  dz2    Ryd( 3d)     0.00251       2.35906
 
   229    O   11  S      Cor( 1S)     0.99991     -18.82381
   230    O   11  S      Val( 2S)     0.86966      -0.81869
   231    O   11  S      Ryd( 4S)     0.00245       1.52455
   232    O   11  S      Ryd( 3S)     0.00014       1.13547
   233    O   11  S      Ryd( 5S)     0.00000      49.79212
   234    O   11  px     Val( 2p)     0.77342      -0.17958
   235    O   11  px     Ryd( 3p)     0.00114       0.72137
   236    O   11  px     Ryd( 4p)     0.00013       1.16497
   237    O   11  px     Ryd( 5p)     0.00002       4.93910
   238    O   11  py     Val( 2p)     0.82322      -0.18745
   239    O   11  py     Ryd( 3p)     0.00114       0.68407
   240    O   11  py     Ryd( 4p)     0.00015       1.13187
   241    O   11  py     Ryd( 5p)     0.00002       4.94313
   242    O   11  pz     Val( 2p)     0.76587      -0.21598
   243    O   11  pz     Ryd( 3p)     0.00046       0.76560
   244    O   11  pz     Ryd( 4p)     0.00022       1.06030
   245    O   11  pz     Ryd( 5p)     0.00014       5.16214
   246    O   11  dxy    Ryd( 3d)     0.00005       3.09952
   247    O   11  dxz    Ryd( 3d)     0.00083       3.33056
   248    O   11  dyz    Ryd( 3d)     0.00079       3.24287
   249    O   11  dx2y2  Ryd( 3d)     0.00004       3.05468
   250    O   11  dz2    Ryd( 3d)     0.00069       3.58211
 
   251    O   12  S      Cor( 1S)     0.99986     -18.74631
   252    O   12  S      Val( 2S)     0.85038      -0.78786
   253    O   12  S      Ryd( 4S)     0.00063       1.91912
   254    O   12  S      Ryd( 3S)     0.00005       0.96035
   255    O   12  S      Ryd( 5S)     0.00000      49.82700
   256    O   12  px     Val( 2p)     0.79326      -0.17669
   257    O   12  px     Ryd( 3p)     0.00076       0.95884
   258    O   12  px     Ryd( 4p)     0.00006       0.97004
   259    O   12  px     Ryd( 5p)     0.00004       5.25023
   260    O   12  py     Val( 2p)     0.76721      -0.16796
   261    O   12  py     Ryd( 3p)     0.00054       0.91835
   262    O   12  py     Ryd( 4p)     0.00006       0.96977
   263    O   12  py     Ryd( 5p)     0.00003       5.17669
   264    O   12  pz     Val( 2p)     0.86968      -0.17382
   265    O   12  pz     Ryd( 3p)     0.00103       0.91673
   266    O   12  pz     Ryd( 4p)     0.00005       0.98344
   267    O   12  pz     Ryd( 5p)     0.00002       5.17040
   268    O   12  dxy    Ryd( 3d)     0.00053       3.38592
   269    O   12  dxz    Ryd( 3d)     0.00060       3.40244
   270    O   12  dyz    Ryd( 3d)     0.00046       3.25812
   271    O   12  dx2y2  Ryd( 3d)     0.00064       3.17727
   272    O   12  dz2    Ryd( 3d)     0.00051       3.19247
 
   273    H   13  S      Val( 1S)     0.27628       0.13784
   274    H   13  S      Ryd( 2S)     0.01749       0.26782
   275    H   13  S      Ryd( 4S)     0.00026       1.80567
   276    H   13  S      Ryd( 3S)     0.00004       1.13575
   277    H   13  px     Ryd( 2p)     0.00015       2.27519
   278    H   13  py     Ryd( 2p)     0.00015       2.34989
   279    H   13  pz     Ryd( 2p)     0.00031       1.78411
 
   280    H   14  S      Val( 1S)     0.29947       0.16834
   281    H   14  S      Ryd( 2S)     0.00138       0.34145
   282    H   14  S      Ryd( 4S)     0.00035       1.81484
   283    H   14  S      Ryd( 3S)     0.00003       1.05429
   284    H   14  px     Ryd( 2p)     0.00009       2.02823
   285    H   14  py     Ryd( 2p)     0.00023       2.63427
   286    H   14  pz     Ryd( 2p)     0.00028       1.69612

 WARNING:  Population inversion found on atom  C    1
           Population inversion found on atom  C    2
           Population inversion found on atom  S    3
           Population inversion found on atom  C    4
           Population inversion found on atom  N    5
           Population inversion found on atom  N    6
           Population inversion found on atom  C    7
           Population inversion found on atom  O    8
           Population inversion found on atom  O    9
           Population inversion found on atom  C   10
           Population inversion found on atom  O   11
           Population inversion found on atom  O   12
           Population inversion found on atom  H   13
           Population inversion found on atom  H   14


 Summary of Natural Population Analysis:                  
                                                          
                                       Natural Population 
                Natural  -----------------------------------------------
    Atom  No    Charge         Core      Valence    Rydberg      Total
 -----------------------------------------------------------------------
      C    1    0.15064      0.99947     1.82966    0.02023     2.84936
      C    2    0.00545      0.99949     1.97779    0.01727     2.99455
      S    3    0.14329      4.99950     2.83805    0.01917     7.85671
      C    4    0.21860      0.99960     1.75846    0.02334     2.78140
      N    5   -0.30608      0.99959     2.79531    0.01118     3.80608
      N    6   -0.37289      0.99967     2.86215    0.01108     3.87289
      C    7    0.39925      0.99952     1.57151    0.02971     2.60075
      O    8   -0.27483      0.99986     3.26907    0.00590     4.27483
      O    9   -0.23327      0.99991     3.22490    0.00847     4.23327
      C   10    0.39327      0.99957     1.57723    0.02993     2.60673
      O   11   -0.24051      0.99991     3.23217    0.00843     4.24051
      O   12   -0.28640      0.99986     3.28053    0.00601     4.28640
      H   13    0.20532      0.00000     0.27628    0.01840     0.29468
      H   14    0.19816      0.00000     0.29947    0.00236     0.30184
 =======================================================================
   * Total *    0.00000     15.99596    30.79258    0.21147    47.00000

                                 Natural Population      
 --------------------------------------------------------
   Core                      15.99596 ( 99.9747% of  16)
   Valence                   30.79258 ( 99.3309% of  31)
   Natural Minimal Basis     46.78853 ( 99.5501% of  47)
   Natural Rydberg Basis      0.21147 (  0.4499% of  47)
 --------------------------------------------------------

    Atom  No          Natural Electron Configuration
 ----------------------------------------------------------------------------
      C    1      [core]2S( 0.44)2p( 1.39)3p( 0.01)3d( 0.01)
      C    2      [core]2S( 0.51)2p( 1.47)3p( 0.01)
      S    3      [core]3S( 0.84)3p( 2.00)3d( 0.01)5p( 0.01)
      C    4      [core]2S( 0.43)2p( 1.33)3d( 0.01)4p( 0.01)
      N    5      [core]2S( 0.68)2p( 2.11)
      N    6      [core]2S( 0.65)2p( 2.22)3p( 0.01)
      C    7      [core]2S( 0.35)2p( 1.22)3S( 0.01)3d( 0.01)4p( 0.01)
      O    8      [core]2S( 0.85)2p( 2.42)
      O    9      [core]2S( 0.87)2p( 2.36)
      C   10      [core]2S( 0.36)2p( 1.22)3S( 0.01)3d( 0.01)4p( 0.01)
      O   11      [core]2S( 0.87)2p( 2.36)
      O   12      [core]2S( 0.85)2p( 2.43)
      H   13            1S( 0.28)2S( 0.02)
      H   14            1S( 0.30)


 NBO analysis skipped by request.
 1\1\GINC-NODE211\SP\UB3LYP\6-311++G(d,p)\C5H2N2O4S1(1-,2)\VSC10255\09-
 Dec-2020\0\\# B3LYP/6-311++G(d,p) empiricaldispersion=gd3bj scf=xqc po
 p=npa geom=check\\CID_153843623_JID_2538_Energie_anion\\-1,2\C,0,-1.12
 69288375,-1.3197788408,-0.068607811\C,0,-1.7221482264,0.0548274207,0.1
 353693998\S,0,-0.4010299718,1.2487744155,0.0184139675\C,0,0.7528083421
 ,-0.1454441709,-0.0162067237\N,0,0.2592072281,-1.3381079208,-0.0506506
 286\N,0,2.0691428376,0.1274428251,-0.0413415765\C,0,-3.143616783,0.376
 9092768,0.0870028149\O,0,-4.149292492,0.6668204293,-0.4760067709\O,0,-
 2.6875768572,0.1817383247,1.3293950269\C,0,-1.9478805015,-2.5342121396
 ,0.0017287868\O,0,-1.8169008641,-2.1099788615,-1.2505075955\O,0,-2.457
 1628696,-3.4256434575,0.6070572012\H,0,2.4216579007,1.0361944727,0.217
 3274099\H,0,2.7071610946,-0.6569017738,-0.0114235008\\Version=ES64L-G1
 6RevA.03\State=2-A\HF=-1000.4764811\S2=0.752967\S2-1=0.\S2A=0.750007\R
 MSD=9.576e-09\Dipole=-0.1895079,0.1435296,-0.1474992\Quadrupole=-10.63
 83603,-0.8793591,11.5177195,-8.8570334,-2.0931186,-0.1992828\PG=C01 [X
 (C5H2N2O4S1)]\\@


 THAT'S WHAT MAKES US A GREAT COUNTRY.
 THE LITTLETHINGS ARE SERIOUS AND THE BIG ONES ARE NOT.,
           WILL ROGERS
 Job cpu time:       0 days  0 hours  8 minutes 29.4 seconds.
 Elapsed time:       0 days  0 hours  4 minutes 49.2 seconds.
 File lengths (MBytes):  RWF=    136 Int=      0 D2E=      0 Chk=     16 Scr=      8
 Normal termination of Gaussian 16 at Wed Dec  9 17:49:40 2020.
