 Entering Gaussian System, Link 0=g16
 Initial command:
 /apps/brussel/CO7/skylake/software/Gaussian/G16.A.03-intel-2017b/g16/l1.exe "/scratch/brussel/102/vsc10255/3549904[6431].master01.hydra.brussel.vsc/Gau-256841.inp" -scrdir="/scratch/brussel/102/vsc10255/3549904[6431].master01.hydra.brussel.vsc/"
 Entering Link 1 = /apps/brussel/CO7/skylake/software/Gaussian/G16.A.03-intel-2017b/g16/l1.exe.bin PID=    256842.
  
 Copyright (c) 1988,1990,1992,1993,1995,1998,2003,2009,2016,
            Gaussian, Inc.  All Rights Reserved.
  
 This is part of the Gaussian(R) 16 program.  It is based on
 the Gaussian(R) 09 system (copyright 2009, Gaussian, Inc.),
 the Gaussian(R) 03 system (copyright 2003, Gaussian, Inc.),
 the Gaussian(R) 98 system (copyright 1998, Gaussian, Inc.),
 the Gaussian(R) 94 system (copyright 1995, Gaussian, Inc.),
 the Gaussian 92(TM) system (copyright 1992, Gaussian, Inc.),
 the Gaussian 90(TM) system (copyright 1990, Gaussian, Inc.),
 the Gaussian 88(TM) system (copyright 1988, Gaussian, Inc.),
 the Gaussian 86(TM) system (copyright 1986, Carnegie Mellon
 University), and the Gaussian 82(TM) system (copyright 1983,
 Carnegie Mellon University). Gaussian is a federally registered
 trademark of Gaussian, Inc.
  
 This software contains proprietary and confidential information,
 including trade secrets, belonging to Gaussian, Inc.
  
 This software is provided under written license and may be
 used, copied, transmitted, or stored only in accord with that
 written license.
  
 The following legend is applicable only to US Government
 contracts under FAR:
  
                    RESTRICTED RIGHTS LEGEND
  
 Use, reproduction and disclosure by the US Government is
 subject to restrictions as set forth in subparagraphs (a)
 and (c) of the Commercial Computer Software - Restricted
 Rights clause in FAR 52.227-19.
  
 Gaussian, Inc.
 340 Quinnipiac St., Bldg. 40, Wallingford CT 06492
  
  
 ---------------------------------------------------------------
 Warning -- This program may not be used in any manner that
 competes with the business of Gaussian, Inc. or will provide
 assistance to any competitor of Gaussian, Inc.  The licensee
 of this program is prohibited from giving any competitor of
 Gaussian, Inc. access to this program.  By using this program,
 the user acknowledges that Gaussian, Inc. is engaged in the
 business of creating and licensing software in the field of
 computational chemistry and represents and warrants to the
 licensee that it is not a competitor of Gaussian, Inc. and that
 it will not use this program in any manner prohibited above.
 ---------------------------------------------------------------
  

 Cite this work as:
 Gaussian 16, Revision A.03,
 M. J. Frisch, G. W. Trucks, H. B. Schlegel, G. E. Scuseria, 
 M. A. Robb, J. R. Cheeseman, G. Scalmani, V. Barone, 
 G. A. Petersson, H. Nakatsuji, X. Li, M. Caricato, A. V. Marenich, 
 J. Bloino, B. G. Janesko, R. Gomperts, B. Mennucci, H. P. Hratchian, 
 J. V. Ortiz, A. F. Izmaylov, J. L. Sonnenberg, D. Williams-Young, 
 F. Ding, F. Lipparini, F. Egidi, J. Goings, B. Peng, A. Petrone, 
 T. Henderson, D. Ranasinghe, V. G. Zakrzewski, J. Gao, N. Rega, 
 G. Zheng, W. Liang, M. Hada, M. Ehara, K. Toyota, R. Fukuda, 
 J. Hasegawa, M. Ishida, T. Nakajima, Y. Honda, O. Kitao, H. Nakai, 
 T. Vreven, K. Throssell, J. A. Montgomery, Jr., J. E. Peralta, 
 F. Ogliaro, M. J. Bearpark, J. J. Heyd, E. N. Brothers, K. N. Kudin, 
 V. N. Staroverov, T. A. Keith, R. Kobayashi, J. Normand, 
 K. Raghavachari, A. P. Rendell, J. C. Burant, S. S. Iyengar, 
 J. Tomasi, M. Cossi, J. M. Millam, M. Klene, C. Adamo, R. Cammi, 
 J. W. Ochterski, R. L. Martin, K. Morokuma, O. Farkas, 
 J. B. Foresman, and D. J. Fox, Gaussian, Inc., Wallingford CT, 2016.
 
 ******************************************
 Gaussian 16:  ES64L-G16RevA.03 25-Dec-2016
                10-Dec-2020 
 ******************************************
 %chk=JID_6431.chk
 %mem=8GB
 %nprocshared=4
 Will use up to    4 processors via shared memory.
 -----------------------------------------------------------
 # opt freq B3LYP/6-31G(d) empiricaldispersion=gd3bj scf=xqc
 -----------------------------------------------------------
 1/18=20,19=15,26=3,38=1/1,3;
 2/9=110,12=2,17=6,18=5,40=1/2;
 3/5=1,6=6,7=1,11=2,25=1,30=1,71=1,74=-5,124=41/1,2,3;
 4//1;
 5/5=2,8=3,13=1,38=5/2,8;
 6/7=2,8=2,9=2,10=2,28=1/1;
 7//1,2,3,16;
 1/18=20,19=15,26=3/3(2);
 2/9=110/2;
 99//99;
 2/9=110/2;
 3/5=1,6=6,7=1,11=2,25=1,30=1,71=1,74=-5,124=41/1,2,3;
 4/5=5,16=3,69=1/1;
 5/5=2,8=3,13=1,38=5/2,8;
 7//1,2,3,16;
 1/18=20,19=15,26=3/3(-5);
 2/9=110/2;
 6/7=2,8=2,9=2,10=2,19=2,28=1/1;
 99/9=1/99;
 -------------------------------
 CID_107450415_JID_6431_neutraal
 -------------------------------
 Symbolic Z-matrix:
 Charge =  0 Multiplicity = 1
 C                     1.02119   0.02481  -0.09453 
 C                    -0.06324   0.03501  -1.16442 
 C                     0.37731  -0.84321  -2.34333 
 C                    -1.50653  -0.30516  -0.68628 
 C                    -2.10753   0.76161   0.24694 
 C                    -2.10308   0.4135    1.72702 
 C                    -2.68722  -0.96956   1.9705 
 C                    -1.88441  -2.08432   1.27981 
 C                    -1.791    -1.75603  -0.23833 
 C                    -0.47871  -2.32674   1.87717 
 C                    -0.41444  -3.14101   3.18443 
 C                    -1.34472  -4.35158   3.07814 
 C                    -2.72364  -3.95089   2.59189 
 O                    -2.63585  -3.31724   1.32022 
 N                    -0.70959  -2.40703   4.42195 
 C                     0.28046  -1.39388   4.75187 
 H                     1.27395  -0.99224   0.21288 
 H                     0.73566   0.61028   0.78205 
 H                     1.94191   0.47045  -0.48919 
 H                    -0.10342   1.06274  -1.55357 
 H                     0.56492  -1.8768   -2.03727 
 H                    -0.38006  -0.84986  -3.13398 
 H                     1.30558  -0.45797  -2.77999 
 H                    -2.08903  -0.19541  -1.61642 
 H                    -1.6232    1.73348   0.09551 
 H                    -3.15588   0.90846  -0.04931 
 H                    -1.09266   0.48738   2.13753 
 H                    -2.70373   1.15587   2.26649 
 H                    -3.72373  -0.99536   1.60581 
 H                    -2.77409  -1.13388   3.04558 
 H                    -2.77302  -2.01117  -0.66903 
 H                    -1.1151   -2.46489  -0.72942 
 H                     0.09533  -2.91283   1.14485 
 H                     0.06783  -1.39116   1.9957 
 H                     0.60594  -3.5352    3.28546 
 H                    -1.41497  -4.88423   4.03396 
 H                    -0.90852  -5.05432   2.35581 
 H                    -3.2491   -3.3099    3.30628 
 H                    -3.33733  -4.84874   2.46353 
 H                    -1.63784  -1.99594   4.40901 
 H                     0.26448  -0.55725   4.04827 
 H                     0.06306  -0.98951   5.74556 
 H                     1.28988  -1.81594   4.78674 
 

 GradGradGradGradGradGradGradGradGradGradGradGradGradGradGradGradGradGrad
 Berny optimization.
 Initialization pass.
                           ----------------------------
                           !    Initial Parameters    !
                           ! (Angstroms and Degrees)  !
 --------------------------                            --------------------------
 ! Name  Definition              Value          Derivative Info.                !
 --------------------------------------------------------------------------------
 ! R1    R(1,2)                  1.5234         estimate D2E/DX2                !
 ! R2    R(1,17)                 1.0921         estimate D2E/DX2                !
 ! R3    R(1,18)                 1.0921         estimate D2E/DX2                !
 ! R4    R(1,19)                 1.0964         estimate D2E/DX2                !
 ! R5    R(2,3)                  1.5347         estimate D2E/DX2                !
 ! R6    R(2,4)                  1.558          estimate D2E/DX2                !
 ! R7    R(2,20)                 1.0997         estimate D2E/DX2                !
 ! R8    R(3,21)                 1.0942         estimate D2E/DX2                !
 ! R9    R(3,22)                 1.0949         estimate D2E/DX2                !
 ! R10   R(3,23)                 1.0958         estimate D2E/DX2                !
 ! R11   R(4,5)                  1.5395         estimate D2E/DX2                !
 ! R12   R(4,9)                  1.5449         estimate D2E/DX2                !
 ! R13   R(4,24)                 1.103          estimate D2E/DX2                !
 ! R14   R(5,6)                  1.5205         estimate D2E/DX2                !
 ! R15   R(5,25)                 1.0964         estimate D2E/DX2                !
 ! R16   R(5,26)                 1.0993         estimate D2E/DX2                !
 ! R17   R(6,7)                  1.521          estimate D2E/DX2                !
 ! R18   R(6,27)                 1.0931         estimate D2E/DX2                !
 ! R19   R(6,28)                 1.0968         estimate D2E/DX2                !
 ! R20   R(7,8)                  1.5376         estimate D2E/DX2                !
 ! R21   R(7,29)                 1.0991         estimate D2E/DX2                !
 ! R22   R(7,30)                 1.091          estimate D2E/DX2                !
 ! R23   R(8,9)                  1.556          estimate D2E/DX2                !
 ! R24   R(8,10)                 1.5465         estimate D2E/DX2                !
 ! R25   R(8,14)                 1.4444         estimate D2E/DX2                !
 ! R26   R(9,31)                 1.1023         estimate D2E/DX2                !
 ! R27   R(9,32)                 1.0957         estimate D2E/DX2                !
 ! R28   R(10,11)                1.5415         estimate D2E/DX2                !
 ! R29   R(10,33)                1.0997         estimate D2E/DX2                !
 ! R30   R(10,34)                1.09           estimate D2E/DX2                !
 ! R31   R(11,12)                1.5304         estimate D2E/DX2                !
 ! R32   R(11,15)                1.4688         estimate D2E/DX2                !
 ! R33   R(11,35)                1.0985         estimate D2E/DX2                !
 ! R34   R(12,13)                1.5161         estimate D2E/DX2                !
 ! R35   R(12,36)                1.0965         estimate D2E/DX2                !
 ! R36   R(12,37)                1.0981         estimate D2E/DX2                !
 ! R37   R(13,14)                1.4235         estimate D2E/DX2                !
 ! R38   R(13,38)                1.0942         estimate D2E/DX2                !
 ! R39   R(13,39)                1.0951         estimate D2E/DX2                !
 ! R40   R(15,16)                1.4545         estimate D2E/DX2                !
 ! R41   R(15,40)                1.0153         estimate D2E/DX2                !
 ! R42   R(16,41)                1.0933         estimate D2E/DX2                !
 ! R43   R(16,42)                1.0946         estimate D2E/DX2                !
 ! R44   R(16,43)                1.0947         estimate D2E/DX2                !
 ! A1    A(2,1,17)             111.6331         estimate D2E/DX2                !
 ! A2    A(2,1,18)             111.9627         estimate D2E/DX2                !
 ! A3    A(2,1,19)             110.015          estimate D2E/DX2                !
 ! A4    A(17,1,18)            109.5005         estimate D2E/DX2                !
 ! A5    A(17,1,19)            106.5876         estimate D2E/DX2                !
 ! A6    A(18,1,19)            106.8928         estimate D2E/DX2                !
 ! A7    A(1,2,3)              109.349          estimate D2E/DX2                !
 ! A8    A(1,2,4)              116.2595         estimate D2E/DX2                !
 ! A9    A(1,2,20)             106.3077         estimate D2E/DX2                !
 ! A10   A(3,2,4)              112.1315         estimate D2E/DX2                !
 ! A11   A(3,2,20)             105.8704         estimate D2E/DX2                !
 ! A12   A(4,2,20)             106.1889         estimate D2E/DX2                !
 ! A13   A(2,3,21)             112.0195         estimate D2E/DX2                !
 ! A14   A(2,3,22)             111.0777         estimate D2E/DX2                !
 ! A15   A(2,3,23)             110.3717         estimate D2E/DX2                !
 ! A16   A(21,3,22)            108.3527         estimate D2E/DX2                !
 ! A17   A(21,3,23)            107.3565         estimate D2E/DX2                !
 ! A18   A(22,3,23)            107.4791         estimate D2E/DX2                !
 ! A19   A(2,4,5)              113.3519         estimate D2E/DX2                !
 ! A20   A(2,4,9)              117.6854         estimate D2E/DX2                !
 ! A21   A(2,4,24)             102.0465         estimate D2E/DX2                !
 ! A22   A(5,4,9)              113.773          estimate D2E/DX2                !
 ! A23   A(5,4,24)             103.6552         estimate D2E/DX2                !
 ! A24   A(9,4,24)             103.9297         estimate D2E/DX2                !
 ! A25   A(4,5,6)              115.4858         estimate D2E/DX2                !
 ! A26   A(4,5,25)             110.9811         estimate D2E/DX2                !
 ! A27   A(4,5,26)             107.5482         estimate D2E/DX2                !
 ! A28   A(6,5,25)             109.6398         estimate D2E/DX2                !
 ! A29   A(6,5,26)             107.2005         estimate D2E/DX2                !
 ! A30   A(25,5,26)            105.4059         estimate D2E/DX2                !
 ! A31   A(5,6,7)              111.278          estimate D2E/DX2                !
 ! A32   A(5,6,27)             110.6582         estimate D2E/DX2                !
 ! A33   A(5,6,28)             108.7979         estimate D2E/DX2                !
 ! A34   A(7,6,27)             110.8756         estimate D2E/DX2                !
 ! A35   A(7,6,28)             109.0518         estimate D2E/DX2                !
 ! A36   A(27,6,28)            106.0069         estimate D2E/DX2                !
 ! A37   A(6,7,8)              112.7572         estimate D2E/DX2                !
 ! A38   A(6,7,29)             109.294          estimate D2E/DX2                !
 ! A39   A(6,7,30)             108.9822         estimate D2E/DX2                !
 ! A40   A(8,7,29)             109.0454         estimate D2E/DX2                !
 ! A41   A(8,7,30)             112.025          estimate D2E/DX2                !
 ! A42   A(29,7,30)            104.379          estimate D2E/DX2                !
 ! A43   A(7,8,9)              108.46           estimate D2E/DX2                !
 ! A44   A(7,8,10)             114.5018         estimate D2E/DX2                !
 ! A45   A(7,8,14)             109.5509         estimate D2E/DX2                !
 ! A46   A(9,8,10)             110.8161         estimate D2E/DX2                !
 ! A47   A(9,8,14)             103.8045         estimate D2E/DX2                !
 ! A48   A(10,8,14)            109.1635         estimate D2E/DX2                !
 ! A49   A(4,9,8)              119.4784         estimate D2E/DX2                !
 ! A50   A(4,9,31)             105.5536         estimate D2E/DX2                !
 ! A51   A(4,9,32)             111.3489         estimate D2E/DX2                !
 ! A52   A(8,9,31)             106.1952         estimate D2E/DX2                !
 ! A53   A(8,9,32)             109.7447         estimate D2E/DX2                !
 ! A54   A(31,9,32)            102.9855         estimate D2E/DX2                !
 ! A55   A(8,10,11)            116.6339         estimate D2E/DX2                !
 ! A56   A(8,10,33)            107.5055         estimate D2E/DX2                !
 ! A57   A(8,10,34)            111.2986         estimate D2E/DX2                !
 ! A58   A(11,10,33)           105.1566         estimate D2E/DX2                !
 ! A59   A(11,10,34)           109.8944         estimate D2E/DX2                !
 ! A60   A(33,10,34)           105.5534         estimate D2E/DX2                !
 ! A61   A(10,11,12)           109.4875         estimate D2E/DX2                !
 ! A62   A(10,11,15)           116.2434         estimate D2E/DX2                !
 ! A63   A(10,11,35)           107.835          estimate D2E/DX2                !
 ! A64   A(12,11,15)           109.3689         estimate D2E/DX2                !
 ! A65   A(12,11,35)           106.6882         estimate D2E/DX2                !
 ! A66   A(15,11,35)           106.7672         estimate D2E/DX2                !
 ! A67   A(11,12,13)           111.4747         estimate D2E/DX2                !
 ! A68   A(11,12,36)           111.2637         estimate D2E/DX2                !
 ! A69   A(11,12,37)           108.0851         estimate D2E/DX2                !
 ! A70   A(13,12,36)           110.4697         estimate D2E/DX2                !
 ! A71   A(13,12,37)           108.63           estimate D2E/DX2                !
 ! A72   A(36,12,37)           106.7371         estimate D2E/DX2                !
 ! A73   A(12,13,14)           110.3699         estimate D2E/DX2                !
 ! A74   A(12,13,38)           112.4701         estimate D2E/DX2                !
 ! A75   A(12,13,39)           109.3058         estimate D2E/DX2                !
 ! A76   A(14,13,38)           110.6155         estimate D2E/DX2                !
 ! A77   A(14,13,39)           107.146          estimate D2E/DX2                !
 ! A78   A(38,13,39)           106.7202         estimate D2E/DX2                !
 ! A79   A(8,14,13)            115.9144         estimate D2E/DX2                !
 ! A80   A(11,15,16)           113.7298         estimate D2E/DX2                !
 ! A81   A(11,15,40)           112.0442         estimate D2E/DX2                !
 ! A82   A(16,15,40)           110.071          estimate D2E/DX2                !
 ! A83   A(15,16,41)           112.1554         estimate D2E/DX2                !
 ! A84   A(15,16,42)           109.1504         estimate D2E/DX2                !
 ! A85   A(15,16,43)           111.49           estimate D2E/DX2                !
 ! A86   A(41,16,42)           107.3753         estimate D2E/DX2                !
 ! A87   A(41,16,43)           109.2099         estimate D2E/DX2                !
 ! A88   A(42,16,43)           107.257          estimate D2E/DX2                !
 ! D1    D(17,1,2,3)           -54.8239         estimate D2E/DX2                !
 ! D2    D(17,1,2,4)            73.3812         estimate D2E/DX2                !
 ! D3    D(17,1,2,20)         -168.6974         estimate D2E/DX2                !
 ! D4    D(18,1,2,3)          -177.9952         estimate D2E/DX2                !
 ! D5    D(18,1,2,4)           -49.7901         estimate D2E/DX2                !
 ! D6    D(18,1,2,20)           68.1313         estimate D2E/DX2                !
 ! D7    D(19,1,2,3)            63.2961         estimate D2E/DX2                !
 ! D8    D(19,1,2,4)          -168.4988         estimate D2E/DX2                !
 ! D9    D(19,1,2,20)          -50.5775         estimate D2E/DX2                !
 ! D10   D(1,2,3,21)            59.1107         estimate D2E/DX2                !
 ! D11   D(1,2,3,22)          -179.566          estimate D2E/DX2                !
 ! D12   D(1,2,3,23)           -60.4558         estimate D2E/DX2                !
 ! D13   D(4,2,3,21)           -71.3583         estimate D2E/DX2                !
 ! D14   D(4,2,3,22)            49.9651         estimate D2E/DX2                !
 ! D15   D(4,2,3,23)           169.0752         estimate D2E/DX2                !
 ! D16   D(20,2,3,21)          173.2673         estimate D2E/DX2                !
 ! D17   D(20,2,3,22)          -65.4094         estimate D2E/DX2                !
 ! D18   D(20,2,3,23)           53.7008         estimate D2E/DX2                !
 ! D19   D(1,2,4,5)             67.2375         estimate D2E/DX2                !
 ! D20   D(1,2,4,9)            -69.0136         estimate D2E/DX2                !
 ! D21   D(1,2,4,24)           178.0351         estimate D2E/DX2                !
 ! D22   D(3,2,4,5)           -165.9298         estimate D2E/DX2                !
 ! D23   D(3,2,4,9)             57.8191         estimate D2E/DX2                !
 ! D24   D(3,2,4,24)           -55.1322         estimate D2E/DX2                !
 ! D25   D(20,2,4,5)           -50.7491         estimate D2E/DX2                !
 ! D26   D(20,2,4,9)           172.9997         estimate D2E/DX2                !
 ! D27   D(20,2,4,24)           60.0485         estimate D2E/DX2                !
 ! D28   D(2,4,5,6)           -102.2228         estimate D2E/DX2                !
 ! D29   D(2,4,5,25)            23.3385         estimate D2E/DX2                !
 ! D30   D(2,4,5,26)           138.1524         estimate D2E/DX2                !
 ! D31   D(9,4,5,6)             35.7793         estimate D2E/DX2                !
 ! D32   D(9,4,5,25)           161.3406         estimate D2E/DX2                !
 ! D33   D(9,4,5,26)           -83.8455         estimate D2E/DX2                !
 ! D34   D(24,4,5,6)           147.9717         estimate D2E/DX2                !
 ! D35   D(24,4,5,25)          -86.4671         estimate D2E/DX2                !
 ! D36   D(24,4,5,26)           28.3469         estimate D2E/DX2                !
 ! D37   D(2,4,9,8)            102.9272         estimate D2E/DX2                !
 ! D38   D(2,4,9,31)          -137.7387         estimate D2E/DX2                !
 ! D39   D(2,4,9,32)           -26.6864         estimate D2E/DX2                !
 ! D40   D(5,4,9,8)            -33.1476         estimate D2E/DX2                !
 ! D41   D(5,4,9,31)            86.1864         estimate D2E/DX2                !
 ! D42   D(5,4,9,32)          -162.7612         estimate D2E/DX2                !
 ! D43   D(24,4,9,8)          -145.1741         estimate D2E/DX2                !
 ! D44   D(24,4,9,31)          -25.8401         estimate D2E/DX2                !
 ! D45   D(24,4,9,32)           85.2123         estimate D2E/DX2                !
 ! D46   D(4,5,6,7)            -50.1249         estimate D2E/DX2                !
 ! D47   D(4,5,6,27)            73.6216         estimate D2E/DX2                !
 ! D48   D(4,5,6,28)          -170.2972         estimate D2E/DX2                !
 ! D49   D(25,5,6,7)          -176.3719         estimate D2E/DX2                !
 ! D50   D(25,5,6,27)          -52.6254         estimate D2E/DX2                !
 ! D51   D(25,5,6,28)           63.4558         estimate D2E/DX2                !
 ! D52   D(26,5,6,7)            69.6904         estimate D2E/DX2                !
 ! D53   D(26,5,6,27)         -166.563          estimate D2E/DX2                !
 ! D54   D(26,5,6,28)          -50.4818         estimate D2E/DX2                !
 ! D55   D(5,6,7,8)             61.4918         estimate D2E/DX2                !
 ! D56   D(5,6,7,29)           -59.9595         estimate D2E/DX2                !
 ! D57   D(5,6,7,30)          -173.4542         estimate D2E/DX2                !
 ! D58   D(27,6,7,8)           -62.1311         estimate D2E/DX2                !
 ! D59   D(27,6,7,29)          176.4176         estimate D2E/DX2                !
 ! D60   D(27,6,7,30)           62.923          estimate D2E/DX2                !
 ! D61   D(28,6,7,8)          -178.4861         estimate D2E/DX2                !
 ! D62   D(28,6,7,29)           60.0625         estimate D2E/DX2                !
 ! D63   D(28,6,7,30)          -53.4321         estimate D2E/DX2                !
 ! D64   D(6,7,8,9)            -55.6481         estimate D2E/DX2                !
 ! D65   D(6,7,8,10)            68.6754         estimate D2E/DX2                !
 ! D66   D(6,7,8,14)          -168.3222         estimate D2E/DX2                !
 ! D67   D(29,7,8,9)            65.9441         estimate D2E/DX2                !
 ! D68   D(29,7,8,10)         -169.7324         estimate D2E/DX2                !
 ! D69   D(29,7,8,14)          -46.73           estimate D2E/DX2                !
 ! D70   D(30,7,8,9)          -179.0287         estimate D2E/DX2                !
 ! D71   D(30,7,8,10)          -54.7052         estimate D2E/DX2                !
 ! D72   D(30,7,8,14)           68.2972         estimate D2E/DX2                !
 ! D73   D(7,8,9,4)             42.3452         estimate D2E/DX2                !
 ! D74   D(7,8,9,31)           -76.662          estimate D2E/DX2                !
 ! D75   D(7,8,9,32)           172.6761         estimate D2E/DX2                !
 ! D76   D(10,8,9,4)           -84.1435         estimate D2E/DX2                !
 ! D77   D(10,8,9,31)          156.8493         estimate D2E/DX2                !
 ! D78   D(10,8,9,32)           46.1874         estimate D2E/DX2                !
 ! D79   D(14,8,9,4)           158.7885         estimate D2E/DX2                !
 ! D80   D(14,8,9,31)           39.7813         estimate D2E/DX2                !
 ! D81   D(14,8,9,32)          -70.8806         estimate D2E/DX2                !
 ! D82   D(7,8,10,11)           78.5033         estimate D2E/DX2                !
 ! D83   D(7,8,10,33)         -163.7946         estimate D2E/DX2                !
 ! D84   D(7,8,10,34)          -48.661          estimate D2E/DX2                !
 ! D85   D(9,8,10,11)         -158.4342         estimate D2E/DX2                !
 ! D86   D(9,8,10,33)          -40.7322         estimate D2E/DX2                !
 ! D87   D(9,8,10,34)           74.4014         estimate D2E/DX2                !
 ! D88   D(14,8,10,11)         -44.7078         estimate D2E/DX2                !
 ! D89   D(14,8,10,33)          72.9943         estimate D2E/DX2                !
 ! D90   D(14,8,10,34)        -171.8721         estimate D2E/DX2                !
 ! D91   D(7,8,14,13)          -72.3484         estimate D2E/DX2                !
 ! D92   D(9,8,14,13)          171.9767         estimate D2E/DX2                !
 ! D93   D(10,8,14,13)          53.7608         estimate D2E/DX2                !
 ! D94   D(8,10,11,12)          44.1242         estimate D2E/DX2                !
 ! D95   D(8,10,11,15)         -80.3958         estimate D2E/DX2                !
 ! D96   D(8,10,11,35)         159.836          estimate D2E/DX2                !
 ! D97   D(33,10,11,12)        -74.8541         estimate D2E/DX2                !
 ! D98   D(33,10,11,15)        160.6259         estimate D2E/DX2                !
 ! D99   D(33,10,11,35)         40.8577         estimate D2E/DX2                !
 ! D100  D(34,10,11,12)        171.976          estimate D2E/DX2                !
 ! D101  D(34,10,11,15)         47.4561         estimate D2E/DX2                !
 ! D102  D(34,10,11,35)        -72.3121         estimate D2E/DX2                !
 ! D103  D(10,11,12,13)        -49.3342         estimate D2E/DX2                !
 ! D104  D(10,11,12,36)       -173.1377         estimate D2E/DX2                !
 ! D105  D(10,11,12,37)         69.9799         estimate D2E/DX2                !
 ! D106  D(15,11,12,13)         79.0988         estimate D2E/DX2                !
 ! D107  D(15,11,12,36)        -44.7047         estimate D2E/DX2                !
 ! D108  D(15,11,12,37)       -161.5871         estimate D2E/DX2                !
 ! D109  D(35,11,12,13)       -165.7742         estimate D2E/DX2                !
 ! D110  D(35,11,12,36)         70.4223         estimate D2E/DX2                !
 ! D111  D(35,11,12,37)        -46.4601         estimate D2E/DX2                !
 ! D112  D(10,11,15,16)        -66.6711         estimate D2E/DX2                !
 ! D113  D(10,11,15,40)         58.9518         estimate D2E/DX2                !
 ! D114  D(12,11,15,16)        168.7482         estimate D2E/DX2                !
 ! D115  D(12,11,15,40)        -65.6289         estimate D2E/DX2                !
 ! D116  D(35,11,15,16)         53.6719         estimate D2E/DX2                !
 ! D117  D(35,11,15,40)        179.2948         estimate D2E/DX2                !
 ! D118  D(11,12,13,14)         58.5651         estimate D2E/DX2                !
 ! D119  D(11,12,13,38)        -65.4912         estimate D2E/DX2                !
 ! D120  D(11,12,13,39)        176.1641         estimate D2E/DX2                !
 ! D121  D(36,12,13,14)       -177.1831         estimate D2E/DX2                !
 ! D122  D(36,12,13,38)         58.7605         estimate D2E/DX2                !
 ! D123  D(36,12,13,39)        -59.5841         estimate D2E/DX2                !
 ! D124  D(37,12,13,14)        -60.4247         estimate D2E/DX2                !
 ! D125  D(37,12,13,38)        175.5189         estimate D2E/DX2                !
 ! D126  D(37,12,13,39)         57.1742         estimate D2E/DX2                !
 ! D127  D(12,13,14,8)         -62.3943         estimate D2E/DX2                !
 ! D128  D(38,13,14,8)          62.7239         estimate D2E/DX2                !
 ! D129  D(39,13,14,8)         178.6836         estimate D2E/DX2                !
 ! D130  D(11,15,16,41)         68.6516         estimate D2E/DX2                !
 ! D131  D(11,15,16,42)       -172.4848         estimate D2E/DX2                !
 ! D132  D(11,15,16,43)        -54.1762         estimate D2E/DX2                !
 ! D133  D(40,15,16,41)        -58.0116         estimate D2E/DX2                !
 ! D134  D(40,15,16,42)         60.8521         estimate D2E/DX2                !
 ! D135  D(40,15,16,43)        179.1606         estimate D2E/DX2                !
 --------------------------------------------------------------------------------
 Trust Radius=3.00D-01 FncErr=1.00D-07 GrdErr=1.00D-06 EigMax=2.50D+02 EigMin=1.00D-04
 Number of steps in this run=    258 maximum allowed number of steps=    258.
 GradGradGradGradGradGradGradGradGradGradGradGradGradGradGradGradGradGrad

                          Input orientation:                          
 ---------------------------------------------------------------------
 Center     Atomic      Atomic             Coordinates (Angstroms)
 Number     Number       Type             X           Y           Z
 ---------------------------------------------------------------------
      1          6           0        1.021190    0.024810   -0.094530
      2          6           0       -0.063240    0.035010   -1.164420
      3          6           0        0.377310   -0.843210   -2.343330
      4          6           0       -1.506530   -0.305160   -0.686280
      5          6           0       -2.107530    0.761610    0.246940
      6          6           0       -2.103080    0.413500    1.727020
      7          6           0       -2.687220   -0.969560    1.970500
      8          6           0       -1.884410   -2.084320    1.279810
      9          6           0       -1.791000   -1.756030   -0.238330
     10          6           0       -0.478710   -2.326740    1.877170
     11          6           0       -0.414440   -3.141010    3.184430
     12          6           0       -1.344720   -4.351580    3.078140
     13          6           0       -2.723640   -3.950890    2.591890
     14          8           0       -2.635850   -3.317240    1.320220
     15          7           0       -0.709590   -2.407030    4.421950
     16          6           0        0.280460   -1.393880    4.751870
     17          1           0        1.273950   -0.992240    0.212880
     18          1           0        0.735660    0.610280    0.782050
     19          1           0        1.941910    0.470450   -0.489190
     20          1           0       -0.103420    1.062740   -1.553570
     21          1           0        0.564920   -1.876800   -2.037270
     22          1           0       -0.380060   -0.849860   -3.133980
     23          1           0        1.305580   -0.457970   -2.779990
     24          1           0       -2.089030   -0.195410   -1.616420
     25          1           0       -1.623200    1.733480    0.095510
     26          1           0       -3.155880    0.908460   -0.049310
     27          1           0       -1.092660    0.487380    2.137530
     28          1           0       -2.703730    1.155870    2.266490
     29          1           0       -3.723730   -0.995360    1.605810
     30          1           0       -2.774090   -1.133880    3.045580
     31          1           0       -2.773020   -2.011170   -0.669030
     32          1           0       -1.115100   -2.464890   -0.729420
     33          1           0        0.095330   -2.912830    1.144850
     34          1           0        0.067830   -1.391160    1.995700
     35          1           0        0.605940   -3.535200    3.285460
     36          1           0       -1.414970   -4.884230    4.033960
     37          1           0       -0.908520   -5.054320    2.355810
     38          1           0       -3.249100   -3.309900    3.306280
     39          1           0       -3.337330   -4.848740    2.463530
     40          1           0       -1.637840   -1.995940    4.409010
     41          1           0        0.264480   -0.557250    4.048270
     42          1           0        0.063060   -0.989510    5.745560
     43          1           0        1.289880   -1.815940    4.786740
 ---------------------------------------------------------------------
                    Distance matrix (angstroms):
                    1          2          3          4          5
     1  C    0.000000
     2  C    1.523403   0.000000
     3  C    2.495023   1.534661   0.000000
     4  C    2.616948   1.558018   2.565963   0.000000
     5  C    3.232393   2.588244   3.931841   1.539513   0.000000
     6  C    3.637332   3.558740   4.929443   2.587733   1.520473
     7  C    4.359521   4.209769   5.293056   2.982270   2.510707
     8  C    3.844444   3.712476   4.447794   2.678379   3.035773
     9  C    3.331739   2.655301   3.156871   1.544864   2.583445
    10  C    3.415712   3.873209   4.554805   3.422642   3.853389
    11  C    4.778601   5.396568   6.038450   4.921087   5.169704
    12  C    5.900522   6.235678   6.683291   5.529065   5.894259
    13  C    6.086608   6.088924   6.605298   5.051644   5.299626
    14  O    5.152160   4.901973   5.349912   3.791310   4.250655
    15  N    5.413690   6.130975   7.028222   5.580948   5.424502
    16  C    5.103818   6.096092   7.117196   5.826845   5.535614
    17  H    1.092144   2.177217   2.713003   3.001939   3.809404
    18  H    1.092106   2.181266   3.465407   2.832215   2.897063
    19  H    1.096393   2.160132   2.758897   3.540078   4.126091
    20  H    2.114437   1.099673   2.118364   2.142909   2.710899
    21  H    2.756545   2.193506   1.094157   2.930210   4.395545
    22  H    3.459307   2.182324   1.094889   2.748976   4.124513
    23  H    2.743292   2.174112   1.095795   3.509264   4.722182
    24  H    3.469599   2.088354   2.651580   1.102956   2.094837
    25  H    3.154119   2.627870   4.072998   2.186518   1.096375
    26  H    4.269754   3.401589   4.562270   2.144519   1.099257
    27  H    3.108766   3.488154   4.899938   2.961978   2.163214
    28  H    4.552883   4.472098   5.894028   3.505246   2.142307
    29  H    5.142584   4.704787   5.695383   3.262825   2.746921
    30  H    5.060336   5.141898   6.249493   4.027439   3.445224
    31  H    4.344110   3.431497   3.753930   2.124798   2.995027
    32  H    3.341471   2.746841   2.731637   2.195339   3.514043
    33  H    3.320092   3.748017   4.065740   3.566362   4.377253
    34  H    2.698690   3.469510   4.384428   3.294089   3.524879
    35  H    4.926503   5.744183   6.243585   5.538087   5.920988
    36  H    6.861339   7.283492   7.759635   6.577000   6.833496
    37  H    5.960328   6.245622   6.439621   5.671547   6.301587
    38  H    6.396966   6.428475   7.152168   5.292027   5.219189
    39  H    7.020816   6.908886   7.276587   5.823852   6.156436
    40  H    5.606759   6.137365   7.140288   5.370099   5.014730
    41  H    4.251376   5.256454   6.398989   5.061224   4.670753
    42  H    6.004457   6.986660   8.096314   6.655863   6.165444
    43  H    5.223730   6.377559   7.253750   6.329006   6.228639
                    6          7          8          9         10
     6  C    0.000000
     7  C    1.520972   0.000000
     8  C    2.546943   1.537611   0.000000
     9  C    2.943952   2.510115   1.556036   0.000000
    10  C    3.189050   2.593871   1.546480   2.554047   0.000000
    11  C    4.196438   3.369622   2.627733   3.940606   1.541459
    12  C    5.010651   3.803581   2.943760   4.234976   2.508442
    13  C    4.492326   3.045617   2.431038   3.700996   2.861538
    14  O    3.790482   2.436617   1.444433   2.362250   2.438142
    15  N    4.142445   3.462217   3.370072   4.828194   2.556493
    16  C    4.254128   4.089400   4.149526   5.415182   3.116162
    17  H    3.958921   4.333660   3.508022   3.190750   2.760900
    18  H    2.998355   3.952773   3.791227   3.608962   3.361557
    19  H    4.612675   5.436226   4.929192   4.353707   4.391279
    20  H    3.896463   4.819267   4.593904   3.538820   4.837292
    21  H    5.151075   5.240393   4.128596   2.966670   4.076083
    22  H    5.309821   5.602948   4.823744   3.346145   5.225182
    23  H    5.717654   6.226663   5.413227   4.211152   5.325893
    24  H    3.398464   3.717948   3.463813   2.103209   4.397826
    25  H    2.152779   3.457478   4.005795   3.509457   4.579253
    26  H    2.123375   2.797541   3.512823   2.999689   4.620074
    27  H    1.093126   2.166378   2.824215   3.341448   2.892057
    28  H    1.096778   2.146005   3.484775   3.947957   4.151007
    29  H    2.150834   1.099098   2.162223   2.777574   3.518006
    30  H    2.140850   1.091029   2.193812   3.483906   2.838462
    31  H    3.474032   2.838914   2.143118   1.102253   3.441886
    32  H    3.910925   3.463689   2.184875   1.095670   2.686706
    33  H    4.029442   3.492933   2.150352   2.609524   1.099689
    34  H    2.835813   2.787236   2.191851   2.929039   1.089984
    35  H    5.035847   4.376817   3.511343   4.618210   2.149447
    36  H    5.819056   4.604468   3.955403   5.308436   3.474058
    37  H    5.631998   4.471857   3.306212   4.288012   2.802414
    38  H    4.203705   2.752673   2.733314   4.135798   3.268642
    39  H    5.454997   3.964058   3.339789   4.388170   3.856943
    40  H    3.635233   2.846223   3.140143   4.656048   2.804144
    41  H    3.454837   3.633134   3.822832   4.902755   2.897775
    42  H    4.775904   4.670708   4.993413   6.311262   4.128697
    43  H    5.083745   4.946200   4.737795   5.894636   3.443026
                   11         12         13         14         15
    11  C    0.000000
    12  C    1.530424   0.000000
    13  C    2.517819   1.516051   0.000000
    14  O    2.905340   2.413951   1.423504   0.000000
    15  N    1.468774   2.447548   3.128741   3.762936   0.000000
    16  C    2.447901   3.767037   4.497603   4.896979   1.454482
    17  H    4.037076   5.133450   5.513078   4.681705   4.863366
    18  H    4.600689   5.849792   6.003878   5.204048   4.943863
    19  H    5.664849   6.839573   7.128019   6.210994   6.279302
    20  H    6.341679   7.232456   7.013336   5.818599   6.936396
    21  H    5.461092   5.994888   6.045296   4.857215   6.605077
    22  H    6.721075   7.196044   6.920574   5.569241   7.721752
    23  H    6.762505   7.516780   7.569161   6.365691   7.728369
    24  H    5.876136   6.314003   5.675935   4.320728   6.576932
    25  H    5.896031   6.782447   6.305152   5.294823   6.057771
    26  H    5.862659   6.381948   5.547617   4.472425   6.080212
    27  H    3.836821   4.935972   4.750240   4.186235   3.707145
    28  H    4.954457   5.730418   5.117155   4.572608   4.617018
    29  H    4.248206   4.369400   3.272261   2.579956   4.359873
    30  H    3.100935   3.521044   2.853756   2.786223   2.788811
    31  H    4.657101   4.643150   3.794542   2.383642   5.507497
    32  H    4.033148   4.255565   3.978278   2.690763   5.167630
    33  H    2.114667   2.807375   3.334379   2.766522   3.412201
    34  H    2.169709   3.454137   3.834053   3.387616   2.742820
    35  H    1.098530   2.124743   3.426360   3.797220   2.072437
    36  H    2.182104   1.096468   2.159469   3.363092   2.604730
    37  H    2.142774   1.098123   2.137277   2.659617   3.364023
    38  H    2.842300   2.182615   1.094226   2.078597   2.917020
    39  H    3.461116   2.143690   1.095092   2.035860   4.086854
    40  H    2.075449   2.721429   2.881443   3.504637   1.015288
    41  H    2.807662   4.234102   4.750442   4.844762   2.123708
    42  H    3.378808   4.516690   5.145979   5.682084   2.087653
    43  H    2.688478   4.036075   5.048140   5.448121   2.116681
                   16         17         18         19         20
    16  C    0.000000
    17  H    4.663772   0.000000
    18  H    4.470272   1.783755   0.000000
    19  H    5.805588   1.754575   1.758022   0.000000
    20  H    6.777973   3.039809   2.522676   2.380564   0.000000
    21  H    6.812235   2.519592   3.763414   3.130852   3.053120
    22  H    7.932142   3.735973   4.325752   3.758946   2.496450
    23  H    7.658702   3.040348   3.762193   2.552380   2.408723
    24  H    6.899705   3.910359   3.792185   4.238218   2.351497
    25  H    5.923343   3.979548   2.701321   3.827157   2.340745
    26  H    6.337234   4.827504   3.990508   5.135446   3.406481
    27  H    3.501339   3.390339   2.279295   4.013547   3.864435
    28  H    4.645829   4.965242   3.785582   5.444772   4.622028
    29  H    5.107842   5.188166   4.810698   6.215875   5.227246
    30  H    3.508461   4.942760   4.525926   6.108120   5.754111
    31  H    6.252275   4.265437   4.613943   5.331167   4.166305
    32  H    5.756665   2.960437   3.894422   4.244908   3.761236
    33  H    3.918172   2.438520   3.599160   4.186470   4.808963
    34  H    2.764361   2.189134   2.434072   3.626630   4.318364
    35  H    2.615635   4.043962   4.844470   5.663747   6.712708
    36  H    3.946191   6.080997   6.737193   7.771752   8.264811
    37  H    4.533608   5.084862   6.104731   6.836816   7.304099
    38  H    4.268332   5.949677   6.133340   7.459439   7.254890
    39  H    5.500996   6.418872   7.015520   8.054981   7.844798
    40  H    2.039584   5.205136   5.057739   6.549050   6.874760
    41  H    1.093279   3.989795   3.500476   4.945552   5.842973
    42  H    1.094622   5.663639   5.258151   6.673355   7.583979
    43  H    1.094659   4.647465   4.715002   5.786896   7.101240
                   21         22         23         24         25
    21  H    0.000000
    22  H    1.774927   0.000000
    23  H    1.764451   1.766428   0.000000
    24  H    3.169801   2.377367   3.598084   0.000000
    25  H    4.729772   4.318408   4.652817   2.620748   0.000000
    26  H    5.055098   4.506890   5.406327   2.193748   1.746636
    27  H    5.076010   5.484964   5.552229   3.943488   2.450323
    28  H    6.197057   6.211881   6.644246   4.157019   2.492856
    29  H    5.695743   5.802319   6.694624   3.700666   3.760293
    30  H    6.126686   6.633175   7.144076   4.804610   4.271910
    31  H    3.609983   3.626414   4.848047   2.159253   3.991117
    32  H    2.208798   2.988397   3.753965   2.624090   4.308710
    33  H    3.379314   4.773911   4.784915   4.447518   5.063858
    34  H    4.092407   5.177570   5.020964   4.373703   4.029104
    35  H    5.575251   7.027977   6.837289   6.515020   6.550102
    36  H    7.058642   8.290147   8.568727   7.373343   7.703819
    37  H    5.618435   6.935023   7.239138   6.386018   7.189851
    38  H    6.719676   7.467271   8.119193   5.939595   6.195827
    39  H    6.657115   7.487897   8.266195   6.313297   7.202179
    40  H    6.813286   7.732542   7.919015   6.304862   5.702199
    41  H    6.234202   7.217047   6.907885   6.144807   4.943186
    42  H    7.849305   8.891686   8.631998   7.711085   6.494706
    43  H    6.862680   8.152289   7.687635   7.419138   6.564454
                   26         27         28         29         30
    26  H    0.000000
    27  H    3.035861   0.000000
    28  H    2.372463   1.749016   0.000000
    29  H    2.585809   3.066557   2.470767   0.000000
    30  H    3.727635   2.506042   2.419687   1.730301   0.000000
    31  H    3.009132   4.116205   4.318822   2.666574   3.816801
    32  H    4.000853   4.115313   4.960759   3.797074   4.332951
    33  H    5.157387   3.736062   5.064300   4.298185   3.874404
    34  H    4.456750   2.212638   3.773888   3.832049   3.040551
    35  H    6.709553   4.514879   5.830811   5.293208   4.153129
    36  H    7.297885   5.705657   6.423991   5.133186   4.109651
    37  H    6.811019   5.549053   6.465077   4.996305   4.396133
    38  H    5.391033   4.520569   4.617542   2.911008   2.242468
    39  H    6.284317   5.798189   6.041160   3.966551   3.802132
    40  H    5.533227   3.409358   3.957325   3.634560   1.973107
    41  H    5.535100   2.565932   3.862614   4.697166   3.251276
    42  H    6.895244   4.066297   4.935758   5.610467   3.919203
    43  H    7.111576   4.242652   5.579627   5.993993   4.473555
                   31         32         33         34         35
    31  H    0.000000
    32  H    1.719944   0.000000
    33  H    3.511493   2.275671   0.000000
    34  H    3.944062   3.158876   1.743612   0.000000
    35  H    5.420150   4.497422   2.286980   2.559287   0.000000
    36  H    5.675992   5.350973   3.809774   4.307521   2.542481
    37  H    4.678331   4.033171   2.657088   3.808107   2.337855
    38  H    4.209090   4.642723   4.001832   4.049840   3.861674
    39  H    4.264174   4.562453   4.155697   4.875330   4.236784
    40  H    5.203398   5.186196   3.807795   3.016477   2.943847
    41  H    5.795965   5.326223   3.742622   2.224212   3.093002
    42  H    7.087602   6.744640   4.986656   3.771312   3.581529
    43  H    6.805196   6.052527   3.986663   3.076321   2.382744
                   36         37         38         39         40
    36  H    0.000000
    37  H    1.761139   0.000000
    38  H    2.524295   3.069969   0.000000
    39  H    2.482535   2.439874   1.756713   0.000000
    40  H    2.921053   3.755160   2.353436   3.848588   0.000000
    41  H    4.641499   4.946108   4.524696   5.822484   2.412216
    42  H    4.503664   5.381176   4.722785   6.101478   2.385860
    43  H    4.159002   4.607547   5.002601   6.000521   2.957469
                   41         42         43
    41  H    0.000000
    42  H    1.763012   0.000000
    43  H    1.783559   1.762785   0.000000
 Stoichiometry    C14H27NO
 Framework group  C1[X(C14H27NO)]
 Deg. of freedom   123
 Full point group                 C1      NOp   1
 Largest Abelian subgroup         C1      NOp   1
 Largest concise Abelian subgroup C1      NOp   1
                         Standard orientation:                         
 ---------------------------------------------------------------------
 Center     Atomic      Atomic             Coordinates (Angstroms)
 Number     Number       Type             X           Y           Z
 ---------------------------------------------------------------------
      1          6           0       -2.377188    1.680420   -0.937084
      2          6           0       -3.125921    0.439264   -0.468376
      3          6           0       -3.702611   -0.296544   -1.685421
      4          6           0       -2.346171   -0.518549    0.481362
      5          6           0       -2.052921    0.096458    1.861895
      6          6           0       -0.632528    0.599195    2.065798
      7          6           0        0.388686   -0.455820    1.669033
      8          6           0        0.295593   -0.845090    0.184429
      9          6           0       -1.159516   -1.309310   -0.112905
     10          6           0        0.729339    0.267120   -0.798654
     11          6           0        2.245731    0.471569   -0.985338
     12          6           0        2.930832   -0.889618   -1.126776
     13          6           0        2.501757   -1.843616   -0.029417
     14          8           0        1.090365   -2.026975   -0.056141
     15          7           0        2.928160    1.254838    0.052967
     16          6           0        2.526716    2.652317    0.090582
     17          1           0       -1.613299    1.434091   -1.677742
     18          1           0       -1.918194    2.218998   -0.105247
     19          1           0       -3.071325    2.376295   -1.422892
     20          1           0       -3.993087    0.799506    0.103927
     21          1           0       -2.922035   -0.597500   -2.390619
     22          1           0       -4.254441   -1.191341   -1.379476
     23          1           0       -4.400648    0.351366   -2.227384
     24          1           0       -3.100635   -1.293769    0.696604
     25          1           0       -2.764309    0.897827    2.093783
     26          1           0       -2.233725   -0.681980    2.616686
     27          1           0       -0.468785    1.527446    1.512206
     28          1           0       -0.495051    0.850221    3.124575
     29          1           0        0.241160   -1.353906    2.285227
     30          1           0        1.385654   -0.103530    1.937901
     31          1           0       -1.247402   -2.328007    0.298791
     32          1           0       -1.284865   -1.467336   -1.189849
     33          1           0        0.351250   -0.005796   -1.794586
     34          1           0        0.254043    1.217514   -0.555940
     35          1           0        2.399305    1.002206   -1.934868
     36          1           0        4.022318   -0.786007   -1.139672
     37          1           0        2.642302   -1.317387   -2.096125
     38          1           0        2.828904   -1.515220    0.961774
     39          1           0        2.958007   -2.823881   -0.203035
     40          1           0        2.826383    0.838187    0.973214
     41          1           0        1.495612    2.776035    0.432310
     42          1           0        3.170600    3.192133    0.792159
     43          1           0        2.641438    3.128989   -0.888142
 ---------------------------------------------------------------------
 Rotational constants (GHZ):           0.7690304           0.3581838           0.3351960
 Standard basis: 6-31G(d) (6D, 7F)
 There are   294 symmetry adapted cartesian basis functions of A   symmetry.
 There are   294 symmetry adapted basis functions of A   symmetry.
   294 basis functions,   556 primitive gaussians,   294 cartesian basis functions
    63 alpha electrons       63 beta electrons
       nuclear repulsion energy      1277.0508211540 Hartrees.
 NAtoms=   43 NActive=   43 NUniq=   43 SFac= 1.00D+00 NAtFMM=   60 NAOKFM=F Big=F
 Integral buffers will be    131072 words long.
 Raffenetti 2 integral format.
 Two-electron integral symmetry is turned on.
 Nuclear repulsion after empirical dispersion term =     1276.9657483746 Hartrees.
 One-electron integrals computed using PRISM.
 NBasis=   294 RedAO= T EigKep=  2.24D-03  NBF=   294
 NBsUse=   294 1.00D-06 EigRej= -1.00D+00 NBFU=   294
 ExpMin= 1.61D-01 ExpMax= 5.48D+03 ExpMxC= 8.25D+02 IAcc=3 IRadAn=         5 AccDes= 0.00D+00
 Harris functional with IExCor=  402 and IRadAn=       5 diagonalized for initial guess.
 HarFok:  IExCor=  402 AccDes= 0.00D+00 IRadAn=         5 IDoV= 1 UseB2=F ITyADJ=14
 ICtDFT=  3500011 ScaDFX=  1.000000  1.000000  1.000000  1.000000
 FoFCou: FMM=F IPFlag=           0 FMFlag=      100000 FMFlg1=           0
         NFxFlg=           0 DoJE=T BraDBF=F KetDBF=T FulRan=T
         wScrn=  0.000000 ICntrl=       500 IOpCl=  0 I1Cent=   200000004 NGrid=           0
         NMat0=    1 NMatS0=      1 NMatT0=    0 NMatD0=    1 NMtDS0=    0 NMtDT0=    0
 Petite list used in FoFCou.
 Requested convergence on RMS density matrix=1.00D-08 within  32 cycles.
 Requested convergence on MAX density matrix=1.00D-06.
 Requested convergence on             energy=1.00D-06.
 No special actions if energy rises.
 Integral accuracy reduced to 1.0D-05 until final iterations.
 Initial convergence to 1.0D-05 achieved.  Increase integral accuracy.
 SCF Done:  E(RB3LYP) =  -679.788136466     A.U. after   12 cycles
            NFock= 12  Conv=0.84D-08     -V/T= 2.0096
 QCSCF skips out because SCF is already converged.

 **********************************************************************

            Population analysis using the SCF density.

 **********************************************************************

 Orbital symmetries:
       Occupied  (A) (A) (A) (A) (A) (A) (A) (A) (A) (A) (A) (A)
                 (A) (A) (A) (A) (A) (A) (A) (A) (A) (A) (A) (A)
                 (A) (A) (A) (A) (A) (A) (A) (A) (A) (A) (A) (A)
                 (A) (A) (A) (A) (A) (A) (A) (A) (A) (A) (A) (A)
                 (A) (A) (A) (A) (A) (A) (A) (A) (A) (A) (A) (A)
                 (A) (A) (A)
       Virtual   (A) (A) (A) (A) (A) (A) (A) (A) (A) (A) (A) (A)
                 (A) (A) (A) (A) (A) (A) (A) (A) (A) (A) (A) (A)
                 (A) (A) (A) (A) (A) (A) (A) (A) (A) (A) (A) (A)
                 (A) (A) (A) (A) (A) (A) (A) (A) (A) (A) (A) (A)
                 (A) (A) (A) (A) (A) (A) (A) (A) (A) (A) (A) (A)
                 (A) (A) (A) (A) (A) (A) (A) (A) (A) (A) (A) (A)
                 (A) (A) (A) (A) (A) (A) (A) (A) (A) (A) (A) (A)
                 (A) (A) (A) (A) (A) (A) (A) (A) (A) (A) (A) (A)
                 (A) (A) (A) (A) (A) (A) (A) (A) (A) (A) (A) (A)
                 (A) (A) (A) (A) (A) (A) (A) (A) (A) (A) (A) (A)
                 (A) (A) (A) (A) (A) (A) (A) (A) (A) (A) (A) (A)
                 (A) (A) (A) (A) (A) (A) (A) (A) (A) (A) (A) (A)
                 (A) (A) (A) (A) (A) (A) (A) (A) (A) (A) (A) (A)
                 (A) (A) (A) (A) (A) (A) (A) (A) (A) (A) (A) (A)
                 (A) (A) (A) (A) (A) (A) (A) (A) (A) (A) (A) (A)
                 (A) (A) (A) (A) (A) (A) (A) (A) (A) (A) (A) (A)
                 (A) (A) (A) (A) (A) (A) (A) (A) (A) (A) (A) (A)
                 (A) (A) (A) (A) (A) (A) (A) (A) (A) (A) (A) (A)
                 (A) (A) (A) (A) (A) (A) (A) (A) (A) (A) (A) (A)
                 (A) (A) (A)
 The electronic state is 1-A.
 Alpha  occ. eigenvalues --  -19.13162 -14.30898 -10.23505 -10.21999 -10.20638
 Alpha  occ. eigenvalues --  -10.19681 -10.18301 -10.18255 -10.17798 -10.17572
 Alpha  occ. eigenvalues --  -10.17543 -10.17175 -10.17122 -10.17004 -10.16817
 Alpha  occ. eigenvalues --  -10.16766  -1.01660  -0.89691  -0.83333  -0.79041
 Alpha  occ. eigenvalues --   -0.77264  -0.75838  -0.72809  -0.69055  -0.67706
 Alpha  occ. eigenvalues --   -0.66411  -0.63096  -0.62184  -0.60119  -0.57558
 Alpha  occ. eigenvalues --   -0.53956  -0.51271  -0.49854  -0.47590  -0.46508
 Alpha  occ. eigenvalues --   -0.45991  -0.45747  -0.45049  -0.43577  -0.43245
 Alpha  occ. eigenvalues --   -0.42554  -0.42156  -0.40378  -0.39420  -0.39056
 Alpha  occ. eigenvalues --   -0.38478  -0.38144  -0.37834  -0.36181  -0.35991
 Alpha  occ. eigenvalues --   -0.35870  -0.34597  -0.34503  -0.33508  -0.32816
 Alpha  occ. eigenvalues --   -0.32489  -0.32180  -0.30503  -0.30189  -0.28912
 Alpha  occ. eigenvalues --   -0.27196  -0.23875  -0.20793
 Alpha virt. eigenvalues --    0.06010   0.07289   0.08530   0.09414   0.10867
 Alpha virt. eigenvalues --    0.11768   0.12849   0.13155   0.14169   0.14433
 Alpha virt. eigenvalues --    0.15123   0.15404   0.15749   0.16024   0.16583
 Alpha virt. eigenvalues --    0.17017   0.17863   0.18105   0.18662   0.19053
 Alpha virt. eigenvalues --    0.19174   0.19684   0.20948   0.21315   0.21590
 Alpha virt. eigenvalues --    0.21924   0.22821   0.23110   0.23241   0.24114
 Alpha virt. eigenvalues --    0.25120   0.25448   0.25659   0.26381   0.27291
 Alpha virt. eigenvalues --    0.28522   0.29456   0.29750   0.30043   0.31319
 Alpha virt. eigenvalues --    0.31602   0.33447   0.34309   0.35068   0.47823
 Alpha virt. eigenvalues --    0.50166   0.51021   0.51558   0.52190   0.53122
 Alpha virt. eigenvalues --    0.54412   0.55429   0.56368   0.57068   0.58581
 Alpha virt. eigenvalues --    0.59232   0.59750   0.60684   0.62492   0.63021
 Alpha virt. eigenvalues --    0.64699   0.65055   0.65602   0.66657   0.67092
 Alpha virt. eigenvalues --    0.67474   0.70187   0.71564   0.72501   0.73374
 Alpha virt. eigenvalues --    0.74566   0.75314   0.76965   0.77271   0.77844
 Alpha virt. eigenvalues --    0.80346   0.80503   0.81233   0.82427   0.83492
 Alpha virt. eigenvalues --    0.83689   0.85360   0.85762   0.86077   0.86918
 Alpha virt. eigenvalues --    0.87521   0.87818   0.88338   0.89424   0.90311
 Alpha virt. eigenvalues --    0.91047   0.91378   0.91805   0.92577   0.93004
 Alpha virt. eigenvalues --    0.94468   0.95210   0.95967   0.96233   0.96866
 Alpha virt. eigenvalues --    0.97232   0.97683   0.99147   0.99689   1.00777
 Alpha virt. eigenvalues --    1.01240   1.02601   1.03308   1.05842   1.07124
 Alpha virt. eigenvalues --    1.07650   1.08722   1.10138   1.13620   1.16842
 Alpha virt. eigenvalues --    1.17231   1.19156   1.21697   1.23472   1.25649
 Alpha virt. eigenvalues --    1.26961   1.32846   1.33640   1.36139   1.37902
 Alpha virt. eigenvalues --    1.39981   1.42582   1.45854   1.46963   1.47497
 Alpha virt. eigenvalues --    1.50984   1.53678   1.56178   1.58479   1.60582
 Alpha virt. eigenvalues --    1.61872   1.63995   1.65949   1.68764   1.73071
 Alpha virt. eigenvalues --    1.73554   1.75229   1.77223   1.77884   1.78697
 Alpha virt. eigenvalues --    1.80660   1.81518   1.82772   1.84116   1.85087
 Alpha virt. eigenvalues --    1.87909   1.88518   1.91424   1.91566   1.92500
 Alpha virt. eigenvalues --    1.94604   1.95425   1.96694   1.98646   2.00683
 Alpha virt. eigenvalues --    2.01823   2.02732   2.03315   2.05166   2.05637
 Alpha virt. eigenvalues --    2.07228   2.08349   2.09460   2.10221   2.11464
 Alpha virt. eigenvalues --    2.13030   2.13385   2.15505   2.16638   2.18167
 Alpha virt. eigenvalues --    2.20755   2.22087   2.25599   2.25919   2.27083
 Alpha virt. eigenvalues --    2.28059   2.29672   2.30895   2.32928   2.34755
 Alpha virt. eigenvalues --    2.36895   2.37624   2.37829   2.38899   2.40760
 Alpha virt. eigenvalues --    2.43620   2.44170   2.45792   2.46860   2.48556
 Alpha virt. eigenvalues --    2.50414   2.51040   2.54981   2.58379   2.60956
 Alpha virt. eigenvalues --    2.64377   2.66978   2.68315   2.69751   2.71763
 Alpha virt. eigenvalues --    2.74628   2.75121   2.77620   2.80107   2.81800
 Alpha virt. eigenvalues --    2.84413   2.86293   2.87878   2.93733   3.11024
 Alpha virt. eigenvalues --    3.94651   4.06261   4.14464   4.22682   4.23881
 Alpha virt. eigenvalues --    4.27396   4.30228   4.30313   4.34008   4.41356
 Alpha virt. eigenvalues --    4.54548   4.55877   4.61805   4.67451   4.70786
 Alpha virt. eigenvalues --    4.80223
          Condensed to atoms (all electrons):
               1          2          3          4          5          6
     1  C    5.138416   0.375127  -0.059605  -0.048761  -0.002897  -0.001045
     2  C    0.375127   4.868117   0.373953   0.396246  -0.037305  -0.001353
     3  C   -0.059605   0.373953   5.134281  -0.043619   0.004937  -0.000106
     4  C   -0.048761   0.396246  -0.043619   4.962197   0.366113  -0.039209
     5  C   -0.002897  -0.037305   0.004937   0.366113   5.058571   0.379086
     6  C   -0.001045  -0.001353  -0.000106  -0.039209   0.379086   5.041920
     7  C    0.000011  -0.000184  -0.000004  -0.010696  -0.048060   0.342840
     8  C    0.000869  -0.001343   0.000017  -0.022362  -0.013182  -0.028001
     9  C   -0.003551  -0.035879  -0.007183   0.326623  -0.045179  -0.013807
    10  C   -0.004149   0.001170  -0.000048   0.001344  -0.000789   0.000241
    11  C    0.000168  -0.000007  -0.000001  -0.000101   0.000002   0.000183
    12  C   -0.000002  -0.000000   0.000000   0.000012  -0.000003  -0.000001
    13  C   -0.000000   0.000001   0.000000  -0.000158  -0.000001   0.000305
    14  O   -0.000006  -0.000023   0.000000   0.002334   0.000144   0.002968
    15  N   -0.000003   0.000000  -0.000000   0.000001  -0.000007  -0.000067
    16  C   -0.000020   0.000001  -0.000000  -0.000001   0.000013  -0.000520
    17  H    0.373119  -0.034013  -0.007498  -0.004023  -0.000278   0.000106
    18  H    0.369367  -0.031350   0.005749  -0.006087   0.003501  -0.000637
    19  H    0.364111  -0.027292  -0.003696   0.005218  -0.000109   0.000021
    20  H   -0.050946   0.374980  -0.048568  -0.041435  -0.007468  -0.000018
    21  H   -0.006707  -0.031705   0.370811  -0.005839  -0.000040   0.000006
    22  H    0.005786  -0.032251   0.368744  -0.004445   0.000067   0.000000
    23  H   -0.002722  -0.028610   0.367622   0.004487  -0.000138   0.000002
    24  H    0.006817  -0.045992  -0.008201   0.367610  -0.045072   0.005321
    25  H    0.000129  -0.007963   0.000263  -0.037747   0.365816  -0.033937
    26  H   -0.000017   0.004798  -0.000211  -0.034242   0.368171  -0.042898
    27  H   -0.000791   0.001223  -0.000035  -0.002151  -0.042538   0.371981
    28  H    0.000017  -0.000073   0.000002   0.004715  -0.033575   0.364770
    29  H   -0.000007   0.000056  -0.000001  -0.000094  -0.005166  -0.037239
    30  H    0.000005  -0.000004  -0.000000   0.000206   0.005138  -0.033760
    31  H   -0.000054   0.005058   0.000211  -0.029886   0.000859   0.000146
    32  H   -0.000228  -0.009432   0.002493  -0.034996   0.004188   0.000011
    33  H   -0.001597   0.000158  -0.000083   0.000022   0.000003  -0.000081
    34  H    0.000920  -0.000856   0.000025   0.000664  -0.000005  -0.000218
    35  H    0.000013   0.000000   0.000000   0.000001   0.000000  -0.000005
    36  H    0.000000   0.000000  -0.000000  -0.000000   0.000000  -0.000002
    37  H    0.000000  -0.000000   0.000000   0.000003  -0.000000  -0.000001
    38  H    0.000000  -0.000000   0.000000   0.000025  -0.000009  -0.000438
    39  H   -0.000000  -0.000000  -0.000000   0.000000   0.000000   0.000000
    40  H    0.000000  -0.000000  -0.000000   0.000001   0.000004  -0.000239
    41  H   -0.000032   0.000002   0.000000  -0.000001  -0.000002   0.000423
    42  H    0.000000  -0.000000   0.000000   0.000000  -0.000000   0.000003
    43  H   -0.000001   0.000000  -0.000000  -0.000000  -0.000000   0.000007
               7          8          9         10         11         12
     1  C    0.000011   0.000869  -0.003551  -0.004149   0.000168  -0.000002
     2  C   -0.000184  -0.001343  -0.035879   0.001170  -0.000007  -0.000000
     3  C   -0.000004   0.000017  -0.007183  -0.000048  -0.000001   0.000000
     4  C   -0.010696  -0.022362   0.326623   0.001344  -0.000101   0.000012
     5  C   -0.048060  -0.013182  -0.045179  -0.000789   0.000002  -0.000003
     6  C    0.342840  -0.028001  -0.013807   0.000241   0.000183  -0.000001
     7  C    5.191188   0.372170  -0.061949  -0.072547  -0.004442  -0.000685
     8  C    0.372170   4.628711   0.389532   0.350757  -0.017382  -0.019623
     9  C   -0.061949   0.389532   5.195707  -0.054798   0.003432   0.000120
    10  C   -0.072547   0.350757  -0.054798   5.304352   0.331211  -0.050776
    11  C   -0.004442  -0.017382   0.003432   0.331211   4.840176   0.379167
    12  C   -0.000685  -0.019623   0.000120  -0.050776   0.379167   5.140104
    13  C   -0.007200  -0.020518   0.004837  -0.023460  -0.028992   0.361090
    14  O   -0.050642   0.208771  -0.045812  -0.046178  -0.011852  -0.049375
    15  N   -0.002038  -0.002988  -0.000085  -0.066034   0.344827  -0.061891
    16  C    0.000240  -0.000253  -0.000003  -0.003102  -0.052247   0.006009
    17  H    0.000058  -0.000734   0.002528  -0.000533   0.000022   0.000001
    18  H   -0.000118   0.000158  -0.000092  -0.001749   0.000020  -0.000001
    19  H   -0.000002  -0.000007  -0.000088   0.000189  -0.000004   0.000000
    20  H   -0.000005  -0.000040   0.005370  -0.000036   0.000000  -0.000000
    21  H   -0.000003   0.000049   0.001635  -0.000063   0.000001  -0.000000
    22  H    0.000000   0.000027  -0.000179   0.000002   0.000000   0.000000
    23  H    0.000000  -0.000003   0.000164   0.000000   0.000000   0.000000
    24  H    0.000381   0.004248  -0.043148  -0.000121   0.000002  -0.000000
    25  H    0.005166   0.000354   0.004218  -0.000011   0.000000   0.000000
    26  H   -0.004983  -0.000764   0.001716   0.000084  -0.000000  -0.000000
    27  H   -0.039673  -0.007392   0.000118   0.002821  -0.000133  -0.000003
    28  H   -0.029584   0.003971   0.000102  -0.000015  -0.000016   0.000001
    29  H    0.354501  -0.030886  -0.007239   0.006519  -0.000071   0.000128
    30  H    0.348595  -0.033117   0.005716  -0.008560   0.002439  -0.000400
    31  H   -0.005454  -0.031862   0.347820   0.006883  -0.000131   0.000027
    32  H    0.006003  -0.028398   0.356369  -0.011501   0.000051  -0.000008
    33  H    0.006848  -0.030498  -0.011773   0.341322  -0.030519  -0.001184
    34  H   -0.004178  -0.024981  -0.000237   0.351970  -0.035659   0.005309
    35  H   -0.000102   0.003841  -0.000153  -0.056309   0.384864  -0.039585
    36  H    0.000016   0.000394   0.000010   0.006514  -0.031303   0.341181
    37  H    0.000192  -0.001393  -0.000095   0.002679  -0.040318   0.356476
    38  H    0.007017  -0.009235  -0.000016   0.001474  -0.012260  -0.053701
    39  H   -0.000089   0.005034  -0.000181  -0.000133   0.005089  -0.038227
    40  H   -0.000200   0.001526  -0.000026  -0.003852  -0.041286  -0.003850
    41  H    0.000067   0.000292   0.000015   0.004087  -0.003176  -0.000139
    42  H   -0.000010  -0.000009  -0.000000  -0.000036   0.004704  -0.000221
    43  H   -0.000016   0.000030  -0.000000  -0.001630  -0.005132   0.000190
              13         14         15         16         17         18
     1  C   -0.000000  -0.000006  -0.000003  -0.000020   0.373119   0.369367
     2  C    0.000001  -0.000023   0.000000   0.000001  -0.034013  -0.031350
     3  C    0.000000   0.000000  -0.000000  -0.000000  -0.007498   0.005749
     4  C   -0.000158   0.002334   0.000001  -0.000001  -0.004023  -0.006087
     5  C   -0.000001   0.000144  -0.000007   0.000013  -0.000278   0.003501
     6  C    0.000305   0.002968  -0.000067  -0.000520   0.000106  -0.000637
     7  C   -0.007200  -0.050642  -0.002038   0.000240   0.000058  -0.000118
     8  C   -0.020518   0.208771  -0.002988  -0.000253  -0.000734   0.000158
     9  C    0.004837  -0.045812  -0.000085  -0.000003   0.002528  -0.000092
    10  C   -0.023460  -0.046178  -0.066034  -0.003102  -0.000533  -0.001749
    11  C   -0.028992  -0.011852   0.344827  -0.052247   0.000022   0.000020
    12  C    0.361090  -0.049375  -0.061891   0.006009   0.000001  -0.000001
    13  C    4.824004   0.251411  -0.003923   0.000033  -0.000002  -0.000000
    14  O    0.251411   8.321013  -0.000287  -0.000001   0.000008  -0.000000
    15  N   -0.003923  -0.000287   6.879652   0.325841   0.000011  -0.000009
    16  C    0.000033  -0.000001   0.325841   4.952913  -0.000005  -0.000019
    17  H   -0.000002   0.000008   0.000011  -0.000005   0.570153  -0.032390
    18  H   -0.000000  -0.000000  -0.000009  -0.000019  -0.032390   0.578914
    19  H    0.000000   0.000000   0.000000  -0.000000  -0.032230  -0.031221
    20  H   -0.000000   0.000000  -0.000000  -0.000000   0.006299  -0.002381
    21  H   -0.000000  -0.000001   0.000000   0.000000   0.006086   0.000004
    22  H    0.000000   0.000000  -0.000000   0.000000   0.000038  -0.000205
    23  H    0.000000  -0.000000   0.000000   0.000000  -0.000323  -0.000068
    24  H    0.000003  -0.000071  -0.000000   0.000000  -0.000077   0.000022
    25  H   -0.000000   0.000001   0.000000   0.000000   0.000063   0.001166
    26  H    0.000000  -0.000014   0.000000  -0.000000  -0.000006  -0.000054
    27  H   -0.000004  -0.000002   0.000290  -0.000218  -0.000230   0.003939
    28  H   -0.000007  -0.000062  -0.000003   0.000008   0.000002   0.000041
    29  H   -0.000073   0.002447   0.000153  -0.000001  -0.000002   0.000001
    30  H    0.000953  -0.001099   0.001965   0.000428   0.000001  -0.000006
    31  H    0.000229   0.002870   0.000003   0.000000  -0.000027  -0.000011
    32  H   -0.000186   0.002655   0.000001  -0.000000   0.000283   0.000058
    33  H   -0.000079   0.000577   0.005683   0.000005   0.003859  -0.000058
    34  H   -0.000001   0.003223  -0.007878   0.002935   0.002008   0.001969
    35  H    0.005090  -0.000087  -0.047642  -0.007076   0.000011  -0.000002
    36  H   -0.028938   0.003410   0.003477   0.000095  -0.000000   0.000000
    37  H   -0.035296   0.002152   0.005096  -0.000204  -0.000002   0.000000
    38  H    0.353311  -0.040515   0.002993  -0.000171  -0.000000   0.000000
    39  H    0.382322  -0.033958  -0.000037   0.000003   0.000000  -0.000000
    40  H    0.003271  -0.000144   0.307798  -0.041309  -0.000000  -0.000000
    41  H   -0.000055  -0.000001  -0.056300   0.358960  -0.000055   0.000255
    42  H    0.000012   0.000000  -0.037527   0.380783   0.000000  -0.000001
    43  H    0.000007  -0.000000  -0.038144   0.382835   0.000003  -0.000002
              19         20         21         22         23         24
     1  C    0.364111  -0.050946  -0.006707   0.005786  -0.002722   0.006817
     2  C   -0.027292   0.374980  -0.031705  -0.032251  -0.028610  -0.045992
     3  C   -0.003696  -0.048568   0.370811   0.368744   0.367622  -0.008201
     4  C    0.005218  -0.041435  -0.005839  -0.004445   0.004487   0.367610
     5  C   -0.000109  -0.007468  -0.000040   0.000067  -0.000138  -0.045072
     6  C    0.000021  -0.000018   0.000006   0.000000   0.000002   0.005321
     7  C   -0.000002  -0.000005  -0.000003   0.000000   0.000000   0.000381
     8  C   -0.000007  -0.000040   0.000049   0.000027  -0.000003   0.004248
     9  C   -0.000088   0.005370   0.001635  -0.000179   0.000164  -0.043148
    10  C    0.000189  -0.000036  -0.000063   0.000002   0.000000  -0.000121
    11  C   -0.000004   0.000000   0.000001   0.000000   0.000000   0.000002
    12  C    0.000000  -0.000000  -0.000000   0.000000   0.000000  -0.000000
    13  C    0.000000  -0.000000  -0.000000   0.000000   0.000000   0.000003
    14  O    0.000000   0.000000  -0.000001   0.000000  -0.000000  -0.000071
    15  N    0.000000  -0.000000   0.000000  -0.000000   0.000000  -0.000000
    16  C   -0.000000  -0.000000   0.000000   0.000000   0.000000   0.000000
    17  H   -0.032230   0.006299   0.006086   0.000038  -0.000323  -0.000077
    18  H   -0.031221  -0.002381   0.000004  -0.000205  -0.000068   0.000022
    19  H    0.591608  -0.006903  -0.000391  -0.000083   0.003988  -0.000217
    20  H   -0.006903   0.652830   0.005954  -0.002802  -0.005327  -0.005149
    21  H   -0.000391   0.005954   0.574349  -0.031089  -0.031566  -0.000178
    22  H   -0.000083  -0.002802  -0.031089   0.580422  -0.030251   0.007074
    23  H    0.003988  -0.005327  -0.031566  -0.030251   0.583688  -0.000006
    24  H   -0.000217  -0.005149  -0.000178   0.007074  -0.000006   0.661450
    25  H   -0.000166   0.006570   0.000005   0.000011  -0.000016   0.001761
    26  H    0.000005   0.000162   0.000001  -0.000018   0.000004  -0.013129
    27  H    0.000046   0.000049   0.000001  -0.000000   0.000001  -0.000130
    28  H   -0.000001  -0.000004  -0.000000  -0.000000  -0.000000  -0.000219
    29  H    0.000000   0.000001   0.000000  -0.000000   0.000000  -0.000308
    30  H    0.000000  -0.000000   0.000000  -0.000000  -0.000000   0.000014
    31  H    0.000003  -0.000196  -0.000177  -0.000132   0.000002  -0.015183
    32  H   -0.000049   0.000159   0.004870   0.000383  -0.000155   0.001486
    33  H    0.000010   0.000004   0.000269  -0.000003   0.000001  -0.000022
    34  H    0.000053   0.000019  -0.000024  -0.000001   0.000000   0.000005
    35  H   -0.000000   0.000000   0.000000  -0.000000  -0.000000  -0.000000
    36  H   -0.000000  -0.000000  -0.000000  -0.000000  -0.000000   0.000000
    37  H   -0.000000  -0.000000  -0.000000   0.000000  -0.000000  -0.000000
    38  H   -0.000000   0.000000  -0.000000   0.000000  -0.000000  -0.000000
    39  H    0.000000   0.000000   0.000000  -0.000000   0.000000  -0.000000
    40  H   -0.000000   0.000000   0.000000   0.000000   0.000000   0.000000
    41  H   -0.000001   0.000000  -0.000000  -0.000000  -0.000000  -0.000000
    42  H    0.000000  -0.000000   0.000000  -0.000000  -0.000000   0.000000
    43  H    0.000000   0.000000   0.000000  -0.000000   0.000000  -0.000000
              25         26         27         28         29         30
     1  C    0.000129  -0.000017  -0.000791   0.000017  -0.000007   0.000005
     2  C   -0.007963   0.004798   0.001223  -0.000073   0.000056  -0.000004
     3  C    0.000263  -0.000211  -0.000035   0.000002  -0.000001  -0.000000
     4  C   -0.037747  -0.034242  -0.002151   0.004715  -0.000094   0.000206
     5  C    0.365816   0.368171  -0.042538  -0.033575  -0.005166   0.005138
     6  C   -0.033937  -0.042898   0.371981   0.364770  -0.037239  -0.033760
     7  C    0.005166  -0.004983  -0.039673  -0.029584   0.354501   0.348595
     8  C    0.000354  -0.000764  -0.007392   0.003971  -0.030886  -0.033117
     9  C    0.004218   0.001716   0.000118   0.000102  -0.007239   0.005716
    10  C   -0.000011   0.000084   0.002821  -0.000015   0.006519  -0.008560
    11  C    0.000000  -0.000000  -0.000133  -0.000016  -0.000071   0.002439
    12  C    0.000000  -0.000000  -0.000003   0.000001   0.000128  -0.000400
    13  C   -0.000000   0.000000  -0.000004  -0.000007  -0.000073   0.000953
    14  O    0.000001  -0.000014  -0.000002  -0.000062   0.002447  -0.001099
    15  N    0.000000   0.000000   0.000290  -0.000003   0.000153   0.001965
    16  C    0.000000  -0.000000  -0.000218   0.000008  -0.000001   0.000428
    17  H    0.000063  -0.000006  -0.000230   0.000002  -0.000002   0.000001
    18  H    0.001166  -0.000054   0.003939   0.000041   0.000001  -0.000006
    19  H   -0.000166   0.000005   0.000046  -0.000001   0.000000   0.000000
    20  H    0.006570   0.000162   0.000049  -0.000004   0.000001  -0.000000
    21  H    0.000005   0.000001   0.000001  -0.000000   0.000000   0.000000
    22  H    0.000011  -0.000018  -0.000000  -0.000000  -0.000000  -0.000000
    23  H   -0.000016   0.000004   0.000001  -0.000000   0.000000  -0.000000
    24  H    0.001761  -0.013129  -0.000130  -0.000219  -0.000308   0.000014
    25  H    0.607676  -0.037283  -0.005457  -0.001247   0.000009  -0.000196
    26  H   -0.037283   0.622413   0.006496  -0.007147   0.005714   0.000004
    27  H   -0.005457   0.006496   0.599073  -0.036869   0.005894  -0.003375
    28  H   -0.001247  -0.007147  -0.036869   0.612484  -0.004246  -0.004079
    29  H    0.000009   0.005714   0.005894  -0.004246   0.604074  -0.038884
    30  H   -0.000196   0.000004  -0.003375  -0.004079  -0.038884   0.632748
    31  H   -0.000151   0.001448   0.000093  -0.000034   0.004701  -0.000111
    32  H   -0.000114  -0.000181  -0.000057   0.000014  -0.000105  -0.000176
    33  H   -0.000001   0.000001  -0.000091   0.000004  -0.000149   0.000033
    34  H   -0.000009  -0.000010   0.002392   0.000001  -0.000072   0.000271
    35  H   -0.000000   0.000000   0.000010   0.000000   0.000007  -0.000017
    36  H    0.000000   0.000000   0.000000   0.000000  -0.000005  -0.000036
    37  H    0.000000  -0.000000  -0.000000   0.000000  -0.000002  -0.000037
    38  H   -0.000000  -0.000000   0.000007   0.000027   0.000153  -0.000525
    39  H   -0.000000  -0.000000   0.000000  -0.000000  -0.000098   0.000062
    40  H   -0.000000   0.000000  -0.000013  -0.000005   0.000007   0.011772
    41  H   -0.000001   0.000000   0.002893  -0.000009  -0.000015  -0.000871
    42  H   -0.000000   0.000000   0.000001  -0.000000   0.000000   0.000060
    43  H    0.000000   0.000000   0.000005  -0.000000   0.000000   0.000023
              31         32         33         34         35         36
     1  C   -0.000054  -0.000228  -0.001597   0.000920   0.000013   0.000000
     2  C    0.005058  -0.009432   0.000158  -0.000856   0.000000   0.000000
     3  C    0.000211   0.002493  -0.000083   0.000025   0.000000  -0.000000
     4  C   -0.029886  -0.034996   0.000022   0.000664   0.000001  -0.000000
     5  C    0.000859   0.004188   0.000003  -0.000005   0.000000   0.000000
     6  C    0.000146   0.000011  -0.000081  -0.000218  -0.000005  -0.000002
     7  C   -0.005454   0.006003   0.006848  -0.004178  -0.000102   0.000016
     8  C   -0.031862  -0.028398  -0.030498  -0.024981   0.003841   0.000394
     9  C    0.347820   0.356369  -0.011773  -0.000237  -0.000153   0.000010
    10  C    0.006883  -0.011501   0.341322   0.351970  -0.056309   0.006514
    11  C   -0.000131   0.000051  -0.030519  -0.035659   0.384864  -0.031303
    12  C    0.000027  -0.000008  -0.001184   0.005309  -0.039585   0.341181
    13  C    0.000229  -0.000186  -0.000079  -0.000001   0.005090  -0.028938
    14  O    0.002870   0.002655   0.000577   0.003223  -0.000087   0.003410
    15  N    0.000003   0.000001   0.005683  -0.007878  -0.047642   0.003477
    16  C    0.000000  -0.000000   0.000005   0.002935  -0.007076   0.000095
    17  H   -0.000027   0.000283   0.003859   0.002008   0.000011  -0.000000
    18  H   -0.000011   0.000058  -0.000058   0.001969  -0.000002   0.000000
    19  H    0.000003  -0.000049   0.000010   0.000053  -0.000000  -0.000000
    20  H   -0.000196   0.000159   0.000004   0.000019   0.000000  -0.000000
    21  H   -0.000177   0.004870   0.000269  -0.000024   0.000000  -0.000000
    22  H   -0.000132   0.000383  -0.000003  -0.000001  -0.000000  -0.000000
    23  H    0.000002  -0.000155   0.000001   0.000000  -0.000000  -0.000000
    24  H   -0.015183   0.001486  -0.000022   0.000005  -0.000000   0.000000
    25  H   -0.000151  -0.000114  -0.000001  -0.000009  -0.000000   0.000000
    26  H    0.001448  -0.000181   0.000001  -0.000010   0.000000   0.000000
    27  H    0.000093  -0.000057  -0.000091   0.002392   0.000010   0.000000
    28  H   -0.000034   0.000014   0.000004   0.000001   0.000000   0.000000
    29  H    0.004701  -0.000105  -0.000149  -0.000072   0.000007  -0.000005
    30  H   -0.000111  -0.000176   0.000033   0.000271  -0.000017  -0.000036
    31  H    0.603979  -0.036858   0.000246  -0.000217   0.000005  -0.000001
    32  H   -0.036858   0.594731   0.007558   0.000245  -0.000021   0.000001
    33  H    0.000246   0.007558   0.618977  -0.037750  -0.004752  -0.000171
    34  H   -0.000217   0.000245  -0.037750   0.590704  -0.002318  -0.000097
    35  H    0.000005  -0.000021  -0.004752  -0.002318   0.633619  -0.003777
    36  H   -0.000001   0.000001  -0.000171  -0.000097  -0.003777   0.596803
    37  H    0.000000   0.000063   0.002381  -0.000043  -0.006507  -0.029547
    38  H   -0.000038   0.000023   0.000113   0.000066  -0.000151   0.001741
    39  H   -0.000049   0.000003  -0.000022   0.000017  -0.000168  -0.000555
    40  H    0.000002  -0.000001  -0.000086  -0.000138   0.006881  -0.000276
    41  H   -0.000000  -0.000000  -0.000463   0.003877  -0.001405   0.000040
    42  H    0.000000   0.000000   0.000007  -0.000184   0.000187  -0.000029
    43  H    0.000000  -0.000000   0.000018   0.000288   0.008446  -0.000050
              37         38         39         40         41         42
     1  C    0.000000   0.000000  -0.000000   0.000000  -0.000032   0.000000
     2  C   -0.000000  -0.000000  -0.000000  -0.000000   0.000002  -0.000000
     3  C    0.000000   0.000000  -0.000000  -0.000000   0.000000   0.000000
     4  C    0.000003   0.000025   0.000000   0.000001  -0.000001   0.000000
     5  C   -0.000000  -0.000009   0.000000   0.000004  -0.000002  -0.000000
     6  C   -0.000001  -0.000438   0.000000  -0.000239   0.000423   0.000003
     7  C    0.000192   0.007017  -0.000089  -0.000200   0.000067  -0.000010
     8  C   -0.001393  -0.009235   0.005034   0.001526   0.000292  -0.000009
[...]
 
   388    H   22  S      Val( 1S)     0.40032       0.13731
   389    H   22  S      Ryd( 2S)     0.00042       0.50055
   390    H   22  S      Ryd( 4S)     0.00028       1.57468
   391    H   22  S      Ryd( 3S)     0.00001       1.12138
   392    H   22  px     Ryd( 2p)     0.00007       2.09193
   393    H   22  py     Ryd( 2p)     0.00013       2.60545
   394    H   22  pz     Ryd( 2p)     0.00006       1.89810
 
   395    H   23  S      Val( 1S)     0.39963       0.13902
   396    H   23  S      Ryd( 2S)     0.00029       0.44109
   397    H   23  S      Ryd( 4S)     0.00030       1.56367
   398    H   23  S      Ryd( 3S)     0.00001       1.16883
   399    H   23  px     Ryd( 2p)     0.00009       2.29601
   400    H   23  py     Ryd( 2p)     0.00008       2.11171
   401    H   23  pz     Ryd( 2p)     0.00008       2.20531
 
   402    H   24  S      Val( 1S)     0.39919       0.15373
   403    H   24  S      Ryd( 2S)     0.00050       0.51229
   404    H   24  S      Ryd( 3S)     0.00074       1.38424
   405    H   24  S      Ryd( 4S)     0.00004       2.71332
   406    H   24  px     Ryd( 2p)     0.00010       2.50268
   407    H   24  py     Ryd( 2p)     0.00012       2.46499
   408    H   24  pz     Ryd( 2p)     0.00009       2.11096
 
   409    H   25  S      Val( 1S)     0.39790       0.14591
   410    H   25  S      Ryd( 2S)     0.00065       0.49979
   411    H   25  S      Ryd( 4S)     0.00034       1.79064
   412    H   25  S      Ryd( 3S)     0.00002       1.11404
   413    H   25  px     Ryd( 2p)     0.00011       2.45145
   414    H   25  py     Ryd( 2p)     0.00010       2.34153
   415    H   25  pz     Ryd( 2p)     0.00007       2.01922
 
   416    H   26  S      Val( 1S)     0.40225       0.14303
   417    H   26  S      Ryd( 2S)     0.00048       0.50148
   418    H   26  S      Ryd( 4S)     0.00042       1.89112
   419    H   26  S      Ryd( 3S)     0.00001       1.07385
   420    H   26  px     Ryd( 2p)     0.00008       2.04328
   421    H   26  py     Ryd( 2p)     0.00010       2.33957
   422    H   26  pz     Ryd( 2p)     0.00012       2.49582
 
   423    H   27  S      Val( 1S)     0.40362       0.14170
   424    H   27  S      Ryd( 2S)     0.00144       0.68597
   425    H   27  S      Ryd( 4S)     0.00050       2.08239
   426    H   27  S      Ryd( 3S)     0.00001       0.75154
   427    H   27  px     Ryd( 2p)     0.00009       1.93513
   428    H   27  py     Ryd( 2p)     0.00014       2.65581
   429    H   27  pz     Ryd( 2p)     0.00010       2.31481
 
   430    H   28  S      Val( 1S)     0.39740       0.14373
   431    H   28  S      Ryd( 2S)     0.00068       0.40020
   432    H   28  S      Ryd( 4S)     0.00033       1.71589
   433    H   28  S      Ryd( 3S)     0.00001       1.21671
   434    H   28  px     Ryd( 2p)     0.00009       1.97095
   435    H   28  py     Ryd( 2p)     0.00009       2.12542
   436    H   28  pz     Ryd( 2p)     0.00013       2.69528
 
   437    H   29  S      Val( 1S)     0.39750       0.14396
   438    H   29  S      Ryd( 2S)     0.00056       0.47501
   439    H   29  S      Ryd( 4S)     0.00055       1.98418
   440    H   29  S      Ryd( 3S)     0.00002       1.04413
   441    H   29  px     Ryd( 2p)     0.00007       2.10122
   442    H   29  py     Ryd( 2p)     0.00012       2.45735
   443    H   29  pz     Ryd( 2p)     0.00008       2.43266
 
   444    H   30  S      Val( 1S)     0.40255       0.13923
   445    H   30  S      Ryd( 2S)     0.00096       0.64933
   446    H   30  S      Ryd( 4S)     0.00069       1.82202
   447    H   30  S      Ryd( 3S)     0.00002       0.92483
   448    H   30  px     Ryd( 2p)     0.00014       2.66718
   449    H   30  py     Ryd( 2p)     0.00009       2.15673
   450    H   30  pz     Ryd( 2p)     0.00006       2.05585
 
   451    H   31  S      Val( 1S)     0.39201       0.15476
   452    H   31  S      Ryd( 2S)     0.00069       0.55629
   453    H   31  S      Ryd( 4S)     0.00051       1.80517
   454    H   31  S      Ryd( 3S)     0.00004       1.11527
   455    H   31  px     Ryd( 2p)     0.00007       2.06899
   456    H   31  py     Ryd( 2p)     0.00013       2.68565
   457    H   31  pz     Ryd( 2p)     0.00007       2.28371
 
   458    H   32  S      Val( 1S)     0.39479       0.15411
   459    H   32  S      Ryd( 2S)     0.00068       0.67096
   460    H   32  S      Ryd( 4S)     0.00045       1.88169
   461    H   32  S      Ryd( 3S)     0.00001       0.94556
   462    H   32  px     Ryd( 2p)     0.00006       2.11493
   463    H   32  py     Ryd( 2p)     0.00009       2.11462
   464    H   32  pz     Ryd( 2p)     0.00012       2.76297
 
   465    H   33  S      Val( 1S)     0.39585       0.13977
   466    H   33  S      Ryd( 2S)     0.00066       0.72546
   467    H   33  S      Ryd( 4S)     0.00047       1.93905
   468    H   33  S      Ryd( 3S)     0.00001       0.91471
   469    H   33  px     Ryd( 2p)     0.00009       2.18815
   470    H   33  py     Ryd( 2p)     0.00006       2.12999
   471    H   33  pz     Ryd( 2p)     0.00011       2.71434
 
   472    H   34  S      Val( 1S)     0.39094       0.14850
   473    H   34  S      Ryd( 2S)     0.00142       0.75070
   474    H   34  S      Ryd( 3S)     0.00042       2.84892
   475    H   34  S      Ryd( 4S)     0.00012       3.43020
   476    H   34  px     Ryd( 2p)     0.00011       2.25862
   477    H   34  py     Ryd( 2p)     0.00011       2.74241
   478    H   34  pz     Ryd( 2p)     0.00006       2.06829
 
   479    H   35  S      Val( 1S)     0.40531       0.14030
   480    H   35  S      Ryd( 2S)     0.00022       0.65202
   481    H   35  S      Ryd( 3S)     0.00092       1.54643
   482    H   35  S      Ryd( 4S)     0.00005       2.83768
   483    H   35  px     Ryd( 2p)     0.00010       1.99900
   484    H   35  py     Ryd( 2p)     0.00010       2.22286
   485    H   35  pz     Ryd( 2p)     0.00018       2.82327
 
   486    H   36  S      Val( 1S)     0.39437       0.13476
   487    H   36  S      Ryd( 2S)     0.00033       0.43745
   488    H   36  S      Ryd( 4S)     0.00058       1.44608
   489    H   36  S      Ryd( 3S)     0.00008       1.40245
   490    H   36  px     Ryd( 2p)     0.00015       2.82391
   491    H   36  py     Ryd( 2p)     0.00009       1.97110
   492    H   36  pz     Ryd( 2p)     0.00006       1.98820
 
   493    H   37  S      Val( 1S)     0.39911       0.13049
   494    H   37  S      Ryd( 2S)     0.00025       0.52121
   495    H   37  S      Ryd( 4S)     0.00049       1.50756
   496    H   37  S      Ryd( 3S)     0.00007       1.32906
   497    H   37  px     Ryd( 2p)     0.00007       2.05953
   498    H   37  py     Ryd( 2p)     0.00009       2.13158
   499    H   37  pz     Ryd( 2p)     0.00013       2.60742
 
   500    H   38  S      Val( 1S)     0.42352       0.10266
   501    H   38  S      Ryd( 2S)     0.00046       0.61532
   502    H   38  S      Ryd( 3S)     0.00061       1.39469
   503    H   38  S      Ryd( 4S)     0.00004       1.41722
   504    H   38  px     Ryd( 2p)     0.00006       2.07538
   505    H   38  py     Ryd( 2p)     0.00011       2.14049
   506    H   38  pz     Ryd( 2p)     0.00023       2.62335
 
   507    H   39  S      Val( 1S)     0.40873       0.11947
   508    H   39  S      Ryd( 2S)     0.00018       0.42912
   509    H   39  S      Ryd( 3S)     0.00048       0.95604
   510    H   39  S      Ryd( 4S)     0.00006       1.95875
   511    H   39  px     Ryd( 2p)     0.00006       2.10146
   512    H   39  py     Ryd( 2p)     0.00021       2.68322
   513    H   39  pz     Ryd( 2p)     0.00010       1.93900
 
   514    H   40  S      Val( 1S)     0.32554       0.17827
   515    H   40  S      Ryd( 2S)     0.00193       0.63292
   516    H   40  S      Ryd( 3S)     0.00079       1.20074
   517    H   40  S      Ryd( 4S)     0.00011       2.22249
   518    H   40  px     Ryd( 2p)     0.00038       1.93034
   519    H   40  py     Ryd( 2p)     0.00019       2.12326
   520    H   40  pz     Ryd( 2p)     0.00029       2.63751
 
   521    H   41  S      Val( 1S)     0.41749       0.11815
   522    H   41  S      Ryd( 2S)     0.00079       0.59606
   523    H   41  S      Ryd( 4S)     0.00060       1.83185
   524    H   41  S      Ryd( 3S)     0.00002       0.89419
   525    H   41  px     Ryd( 2p)     0.00014       2.67492
   526    H   41  py     Ryd( 2p)     0.00005       1.93171
   527    H   41  pz     Ryd( 2p)     0.00010       2.04767
 
   528    H   42  S      Val( 1S)     0.40301       0.12480
   529    H   42  S      Ryd( 2S)     0.00049       0.38327
   530    H   42  S      Ryd( 4S)     0.00025       1.46875
   531    H   42  S      Ryd( 3S)     0.00001       1.23342
   532    H   42  px     Ryd( 2p)     0.00010       2.18298
   533    H   42  py     Ryd( 2p)     0.00007       2.14073
   534    H   42  pz     Ryd( 2p)     0.00011       2.22151
 
   535    H   43  S      Val( 1S)     0.40774       0.11818
   536    H   43  S      Ryd( 2S)     0.00053       0.49170
   537    H   43  S      Ryd( 4S)     0.00031       1.64518
   538    H   43  S      Ryd( 3S)     0.00002       1.12889
   539    H   43  px     Ryd( 2p)     0.00008       1.91767
   540    H   43  py     Ryd( 2p)     0.00007       2.06957
   541    H   43  pz     Ryd( 2p)     0.00014       2.62505

 WARNING:  Population inversion found on atom  C    1
           Population inversion found on atom  C    2
           Population inversion found on atom  C    4
           Population inversion found on atom  C    5
           Population inversion found on atom  C    6
           Population inversion found on atom  C    8
           Population inversion found on atom  C    9
           Population inversion found on atom  C   10
           Population inversion found on atom  C   11
           Population inversion found on atom  C   12
           Population inversion found on atom  C   13
           Population inversion found on atom  O   14
           Population inversion found on atom  C   16
           Population inversion found on atom  H   17
           Population inversion found on atom  H   18
           Population inversion found on atom  H   19
           Population inversion found on atom  H   20
           Population inversion found on atom  H   21
           Population inversion found on atom  H   22
           Population inversion found on atom  H   23
           Population inversion found on atom  H   24
           Population inversion found on atom  H   25
           Population inversion found on atom  H   26
           Population inversion found on atom  H   27
           Population inversion found on atom  H   28
           Population inversion found on atom  H   29
           Population inversion found on atom  H   30
           Population inversion found on atom  H   31
           Population inversion found on atom  H   32
           Population inversion found on atom  H   33
           Population inversion found on atom  H   35
           Population inversion found on atom  H   36
           Population inversion found on atom  H   37
           Population inversion found on atom  H   38
           Population inversion found on atom  H   39
           Population inversion found on atom  H   41
           Population inversion found on atom  H   42
           Population inversion found on atom  H   43


 Summary of Natural Population Analysis:                  
                                                          
                                       Natural Population 
                Natural  -----------------------------------------------
    Atom  No    Charge         Core      Valence    Rydberg      Total
 -----------------------------------------------------------------------
      C    1   -0.28643      0.99964     2.28053    0.00626     3.28643
      C    2   -0.10703      0.99959     2.09718    0.01027     3.10703
      C    3   -0.28502      0.99965     2.27893    0.00644     3.28502
      C    4   -0.10572      0.99956     2.09413    0.01203     3.10572
      C    5   -0.18759      0.99961     2.17890    0.00908     3.18759
      C    6   -0.19203      0.99962     2.18343    0.00899     3.19203
      C    7   -0.20257      0.99956     2.19250    0.01051     3.20257
      C    8    0.14412      0.99948     1.84068    0.01572     2.85588
      C    9   -0.19683      0.99955     2.18507    0.01221     3.19683
      C   10   -0.21767      0.99955     2.20778    0.01034     3.21767
      C   11   -0.00540      0.99958     1.99208    0.01373     3.00540
      C   12   -0.20503      0.99960     2.19784    0.00759     3.20503
      C   13   -0.00802      0.99957     1.99706    0.01139     3.00802
      O   14   -0.31267      0.99987     3.30277    0.01002     4.31267
      N   15   -0.34323      0.99974     2.83147    0.01201     3.84323
      C   16   -0.17905      0.99965     2.17121    0.00819     3.17905
      H   17    0.09540      0.00000     0.40313    0.00148     0.40460
      H   18    0.09954      0.00000     0.39922    0.00124     0.40046
      H   19    0.09924      0.00000     0.39978    0.00097     0.40076
      H   20    0.09258      0.00000     0.40559    0.00184     0.40742
      H   21    0.09572      0.00000     0.40325    0.00103     0.40428
      H   22    0.09870      0.00000     0.40032    0.00098     0.40130
      H   23    0.09951      0.00000     0.39963    0.00086     0.40049
      H   24    0.09921      0.00000     0.39919    0.00160     0.40079
      H   25    0.10081      0.00000     0.39790    0.00129     0.39919
      H   26    0.09654      0.00000     0.40225    0.00121     0.40346
      H   27    0.09411      0.00000     0.40362    0.00228     0.40589
      H   28    0.10128      0.00000     0.39740    0.00132     0.39872
      H   29    0.10110      0.00000     0.39750    0.00140     0.39890
      H   30    0.09550      0.00000     0.40255    0.00195     0.40450
      H   31    0.10648      0.00000     0.39201    0.00151     0.39352
      H   32    0.10381      0.00000     0.39479    0.00140     0.39619
      H   33    0.10275      0.00000     0.39585    0.00140     0.39725
      H   34    0.10682      0.00000     0.39094    0.00224     0.39318
      H   35    0.09313      0.00000     0.40531    0.00157     0.40687
      H   36    0.10433      0.00000     0.39437    0.00130     0.39567
      H   37    0.09980      0.00000     0.39911    0.00109     0.40020
      H   38    0.07498      0.00000     0.42352    0.00150     0.42502
      H   39    0.09018      0.00000     0.40873    0.00109     0.40982
      H   40    0.17078      0.00000     0.32554    0.00368     0.32922
      H   41    0.08083      0.00000     0.41749    0.00169     0.41917
      H   42    0.09596      0.00000     0.40301    0.00103     0.40404
      H   43    0.09110      0.00000     0.40774    0.00116     0.40890
 =======================================================================
   * Total *    0.00000     15.99383    46.80129    0.20488    63.00000

                                 Natural Population      
 --------------------------------------------------------
   Core                      15.99383 ( 99.9614% of  16)
   Valence                   46.80129 ( 99.5772% of  47)
   Natural Minimal Basis     62.79512 ( 99.6748% of  63)
   Natural Rydberg Basis      0.20488 (  0.3252% of  63)
 --------------------------------------------------------

    Atom  No          Natural Electron Configuration
 ----------------------------------------------------------------------------
      C    1      [core]2S( 0.54)2p( 1.74)
      C    2      [core]2S( 0.48)2p( 1.61)
      C    3      [core]2S( 0.54)2p( 1.74)
      C    4      [core]2S( 0.48)2p( 1.61)3p( 0.01)
      C    5      [core]2S( 0.50)2p( 1.67)3p( 0.01)
      C    6      [core]2S( 0.51)2p( 1.68)
      C    7      [core]2S( 0.51)2p( 1.69)3p( 0.01)
      C    8      [core]2S( 0.44)2p( 1.40)3p( 0.01)
      C    9      [core]2S( 0.50)2p( 1.68)3p( 0.01)
      C   10      [core]2S( 0.51)2p( 1.70)3p( 0.01)
      C   11      [core]2S( 0.47)2p( 1.52)3p( 0.01)
      C   12      [core]2S( 0.51)2p( 1.68)
      C   13      [core]2S( 0.50)2p( 1.50)3p( 0.01)
      O   14      [core]2S( 0.81)2p( 2.50)3p( 0.01)
      N   15      [core]2S( 0.66)2p( 2.17)3p( 0.01)
      C   16      [core]2S( 0.53)2p( 1.64)
      H   17            1S( 0.40)
      H   18            1S( 0.40)
      H   19            1S( 0.40)
      H   20            1S( 0.41)
      H   21            1S( 0.40)
      H   22            1S( 0.40)
      H   23            1S( 0.40)
      H   24            1S( 0.40)
      H   25            1S( 0.40)
      H   26            1S( 0.40)
      H   27            1S( 0.40)
      H   28            1S( 0.40)
      H   29            1S( 0.40)
      H   30            1S( 0.40)
      H   31            1S( 0.39)
      H   32            1S( 0.39)
      H   33            1S( 0.40)
      H   34            1S( 0.39)
      H   35            1S( 0.41)
      H   36            1S( 0.39)
      H   37            1S( 0.40)
      H   38            1S( 0.42)
      H   39            1S( 0.41)
      H   40            1S( 0.33)
      H   41            1S( 0.42)
      H   42            1S( 0.40)
      H   43            1S( 0.41)


 NBO analysis skipped by request.
 1\1\GINC-NODE352\SP\UB3LYP\6-311++G(d,p)\C14H27N1O1(1-,2)\VSC10255\11-
 Dec-2020\0\\# B3LYP/6-311++G(d,p) empiricaldispersion=gd3bj scf=xqc po
 p=npa geom=check\\CID_107450415_JID_6431_Energie_anion\\-1,2\C,0,0.975
 2838275,0.254161572,-0.0264023896\C,0,-0.0632410318,0.0078838931,-1.12
 82459243\C,0,0.4647970195,-1.0401233985,-2.1170929576\C,0,-1.534111397
 ,-0.2886213656,-0.7068935466\C,0,-2.1356884932,0.7768773319,0.23633324
 72\C,0,-2.0037298717,0.4492134288,1.7285270626\C,0,-2.5893420772,-0.93
 11914344,2.0466557439\C,0,-1.8839316888,-2.0598775178,1.2689120232\C,0
 ,-1.9092634837,-1.7171495999,-0.2356127451\C,0,-0.4679195326,-2.372150
 9558,1.7916321171\C,0,-0.3918235574,-3.2093743791,3.0969293315\C,0,-1.
 3396360686,-4.4076728565,2.9797174234\C,0,-2.7295928822,-3.9496114693,
 2.5476665869\O,0,-2.6869169298,-3.2638846973,1.3059007896\N,0,-0.63734
 35591,-2.5148113649,4.364974578\C,0,0.202940462,-1.3554541351,4.620296
 4751\H,0,1.2262504633,-0.6626353469,0.5127899361\H,0,0.642034903,1.001
 7393619,0.6996208426\H,0,1.9038130154,0.6271556786,-0.4750987814\H,0,-
 0.1417507246,0.956602898,-1.6813797881\H,0,0.6697836167,-1.9945156664,
 -1.618313402\H,0,-0.2530381112,-1.2321878887,-2.9234203681\H,0,1.40231
 37387,-0.703016428,-2.5739766901\H,0,-2.069441006,-0.1818167828,-1.660
 8822894\H,0,-1.6926038625,1.75757781,0.0195458903\H,0,-3.2078586466,0.
 8687922958,0.0136849575\H,0,-0.9547428219,0.4878750025,2.0423711856\H,
 0,-2.5261038082,1.2127560493,2.3181332109\H,0,-3.6487123886,-0.9539362
 295,1.7587584951\H,0,-2.5509587731,-1.1078601859,3.1253041281\H,0,-2.9
 542977301,-1.880321864,-0.5259044358\H,0,-1.3323062179,-2.4743912554,-
 0.7755101566\H,0,0.055879156,-2.942140007,1.0135350332\H,0,0.091991355
 8,-1.4459982332,1.9250020224\H,0,0.6399378593,-3.5811212295,3.16711647
 41\H,0,-1.3854036723,-4.9386465205,3.9371705126\H,0,-0.9570770584,-5.0
 995112919,2.2200316015\H,0,-3.1992719022,-3.3255660409,3.325731674\H,0
 ,-3.3920366281,-4.8054872231,2.3850982049\H,0,-1.616473623,-2.26085127
 51,4.4543917175\H,0,0.0765662845,-0.5130109067,3.917802102\H,0,0.00363
 98238,-0.9815369072,5.6301652774\H,0,1.2552460223,-1.6618208649,4.5808
 2483\\Version=ES64L-G16RevA.03\State=2-A\HF=-679.9687131\S2=0.750032\S
 2-1=0.\S2A=0.75\RMSD=9.796e-09\Dipole=-0.5058426,-1.5801619,0.1166235\
 Quadrupole=7.1761073,3.2455538,-10.4216611,-1.1393401,2.3062574,5.0723
 517\PG=C01 [X(C14H27N1O1)]\\@


 CURIOUSER AND CURIOUSER

                  -- ALICE, IN WONDERLAND
 Job cpu time:       0 days  1 hours 27 minutes 52.5 seconds.
 Elapsed time:       0 days  0 hours 22 minutes 10.6 seconds.
 File lengths (MBytes):  RWF=    332 Int=      0 D2E=      0 Chk=     32 Scr=      8
 Normal termination of Gaussian 16 at Fri Dec 11 00:02:37 2020.
