 Entering Gaussian System, Link 0=g16
 Initial command:
 /apps/brussel/CO7/ivybridge-ib/software/Gaussian/G16.A.03-intel-2017b/g16/l1.exe "/scratch/brussel/102/vsc10255/3547575[4456].master01.hydra.brussel.vsc/Gau-57287.inp" -scrdir="/scratch/brussel/102/vsc10255/3547575[4456].master01.hydra.brussel.vsc/"
 Entering Link 1 = /apps/brussel/CO7/ivybridge-ib/software/Gaussian/G16.A.03-intel-2017b/g16/l1.exe.bin PID=     57288.
  
 Copyright (c) 1988,1990,1992,1993,1995,1998,2003,2009,2016,
            Gaussian, Inc.  All Rights Reserved.
  
 This is part of the Gaussian(R) 16 program.  It is based on
 the Gaussian(R) 09 system (copyright 2009, Gaussian, Inc.),
 the Gaussian(R) 03 system (copyright 2003, Gaussian, Inc.),
 the Gaussian(R) 98 system (copyright 1998, Gaussian, Inc.),
 the Gaussian(R) 94 system (copyright 1995, Gaussian, Inc.),
 the Gaussian 92(TM) system (copyright 1992, Gaussian, Inc.),
 the Gaussian 90(TM) system (copyright 1990, Gaussian, Inc.),
 the Gaussian 88(TM) system (copyright 1988, Gaussian, Inc.),
 the Gaussian 86(TM) system (copyright 1986, Carnegie Mellon
 University), and the Gaussian 82(TM) system (copyright 1983,
 Carnegie Mellon University). Gaussian is a federally registered
 trademark of Gaussian, Inc.
  
 This software contains proprietary and confidential information,
 including trade secrets, belonging to Gaussian, Inc.
  
 This software is provided under written license and may be
 used, copied, transmitted, or stored only in accord with that
 written license.
  
 The following legend is applicable only to US Government
 contracts under FAR:
  
                    RESTRICTED RIGHTS LEGEND
  
 Use, reproduction and disclosure by the US Government is
 subject to restrictions as set forth in subparagraphs (a)
 and (c) of the Commercial Computer Software - Restricted
 Rights clause in FAR 52.227-19.
  
 Gaussian, Inc.
 340 Quinnipiac St., Bldg. 40, Wallingford CT 06492
  
  
 ---------------------------------------------------------------
 Warning -- This program may not be used in any manner that
 competes with the business of Gaussian, Inc. or will provide
 assistance to any competitor of Gaussian, Inc.  The licensee
 of this program is prohibited from giving any competitor of
 Gaussian, Inc. access to this program.  By using this program,
 the user acknowledges that Gaussian, Inc. is engaged in the
 business of creating and licensing software in the field of
 computational chemistry and represents and warrants to the
 licensee that it is not a competitor of Gaussian, Inc. and that
 it will not use this program in any manner prohibited above.
 ---------------------------------------------------------------
  

 Cite this work as:
 Gaussian 16, Revision A.03,
 M. J. Frisch, G. W. Trucks, H. B. Schlegel, G. E. Scuseria, 
 M. A. Robb, J. R. Cheeseman, G. Scalmani, V. Barone, 
 G. A. Petersson, H. Nakatsuji, X. Li, M. Caricato, A. V. Marenich, 
 J. Bloino, B. G. Janesko, R. Gomperts, B. Mennucci, H. P. Hratchian, 
 J. V. Ortiz, A. F. Izmaylov, J. L. Sonnenberg, D. Williams-Young, 
 F. Ding, F. Lipparini, F. Egidi, J. Goings, B. Peng, A. Petrone, 
 T. Henderson, D. Ranasinghe, V. G. Zakrzewski, J. Gao, N. Rega, 
 G. Zheng, W. Liang, M. Hada, M. Ehara, K. Toyota, R. Fukuda, 
 J. Hasegawa, M. Ishida, T. Nakajima, Y. Honda, O. Kitao, H. Nakai, 
 T. Vreven, K. Throssell, J. A. Montgomery, Jr., J. E. Peralta, 
 F. Ogliaro, M. J. Bearpark, J. J. Heyd, E. N. Brothers, K. N. Kudin, 
 V. N. Staroverov, T. A. Keith, R. Kobayashi, J. Normand, 
 K. Raghavachari, A. P. Rendell, J. C. Burant, S. S. Iyengar, 
 J. Tomasi, M. Cossi, J. M. Millam, M. Klene, C. Adamo, R. Cammi, 
 J. W. Ochterski, R. L. Martin, K. Morokuma, O. Farkas, 
 J. B. Foresman, and D. J. Fox, Gaussian, Inc., Wallingford CT, 2016.
 
 ******************************************
 Gaussian 16:  ES64L-G16RevA.03 25-Dec-2016
                10-Dec-2020 
 ******************************************
 %chk=JID_4456.chk
 %mem=8GB
 %nprocshared=4
 Will use up to    4 processors via shared memory.
 -----------------------------------------------------------
 # opt freq B3LYP/6-31G(d) empiricaldispersion=gd3bj scf=xqc
 -----------------------------------------------------------
 1/18=20,19=15,26=3,38=1/1,3;
 2/9=110,12=2,17=6,18=5,40=1/2;
 3/5=1,6=6,7=1,11=2,25=1,30=1,71=1,74=-5,124=41/1,2,3;
 4//1;
 5/5=2,8=3,13=1,38=5/2,8;
 6/7=2,8=2,9=2,10=2,28=1/1;
 7//1,2,3,16;
 1/18=20,19=15,26=3/3(2);
 2/9=110/2;
 99//99;
 2/9=110/2;
 3/5=1,6=6,7=1,11=2,25=1,30=1,71=1,74=-5,124=41/1,2,3;
 4/5=5,16=3,69=1/1;
 5/5=2,8=3,13=1,38=5/2,8;
 7//1,2,3,16;
 1/18=20,19=15,26=3/3(-5);
 2/9=110/2;
 6/7=2,8=2,9=2,10=2,19=2,28=1/1;
 99/9=1/99;
 -------------------------------
 CID_125497472_JID_4456_neutraal
 -------------------------------
 Symbolic Z-matrix:
 Charge =  0 Multiplicity = 1
 C                     0.92322  -0.02248  -0.05999 
 C                     0.52613   1.20889   0.74003 
 C                     0.74505   2.52577  -0.01007 
 C                    -0.08904   2.70107  -1.27869 
 C                    -1.53226   2.92659  -0.98829 
 N                    -2.00574   4.05536  -0.51645 
 N                    -2.40642   5.03956  -0.10233 
 C                    -2.55713   1.89853  -1.27419 
 O                    -2.97303   1.7276   -2.40041 
 O                    -2.85797   1.27187  -0.12922 
 C                    -3.84909   0.21408  -0.11476 
 C                    -3.41886  -0.96419  -0.99519 
 C                    -3.90033  -0.25512   1.34652 
 C                    -5.22956   0.74884  -0.51096 
 H                     0.26776  -0.16857  -0.92334 
 H                     0.84698  -0.91707   0.5665 
 H                     1.95537   0.05509  -0.41565 
 H                    -0.51617   1.119     1.06111 
 H                     1.12931   1.23296   1.65586 
 H                     0.53906   3.35274   0.681 
 H                     1.80598   2.60317  -0.2785 
 H                     0.27595   3.58573  -1.81532 
 H                     0.02417   1.85283  -1.9601 
 H                    -2.39386  -1.27179  -0.75958 
 H                    -4.08165  -1.82563  -0.85953 
 H                    -3.43256  -0.70507  -2.05825 
 H                    -4.16737   0.57353   2.01279 
 H                    -4.62645  -1.06214   1.4898 
 H                    -2.91695  -0.61106   1.67559 
 H                    -5.48585   1.6371    0.07756 
 H                    -5.26256   1.05015  -1.56254 
 H                    -6.00857  -0.00602  -0.3593 
 

 GradGradGradGradGradGradGradGradGradGradGradGradGradGradGradGradGradGrad
 Berny optimization.
 Initialization pass.
                           ----------------------------
                           !    Initial Parameters    !
                           ! (Angstroms and Degrees)  !
 --------------------------                            --------------------------
 ! Name  Definition              Value          Derivative Info.                !
 --------------------------------------------------------------------------------
 ! R1    R(1,2)                  1.5212         estimate D2E/DX2                !
 ! R2    R(1,15)                 1.0938         estimate D2E/DX2                !
 ! R3    R(1,16)                 1.0948         estimate D2E/DX2                !
 ! R4    R(1,17)                 1.0945         estimate D2E/DX2                !
 ! R5    R(2,3)                  1.5313         estimate D2E/DX2                !
 ! R6    R(2,18)                 1.0943         estimate D2E/DX2                !
 ! R7    R(2,19)                 1.0969         estimate D2E/DX2                !
 ! R8    R(3,4)                  1.5283         estimate D2E/DX2                !
 ! R9    R(3,20)                 1.0972         estimate D2E/DX2                !
 ! R10   R(3,21)                 1.0971         estimate D2E/DX2                !
 ! R11   R(4,5)                  1.4893         estimate D2E/DX2                !
 ! R12   R(4,22)                 1.0972         estimate D2E/DX2                !
 ! R13   R(4,23)                 1.0939         estimate D2E/DX2                !
 ! R14   R(5,6)                  1.3118         estimate D2E/DX2                !
 ! R15   R(5,8)                  1.4795         estimate D2E/DX2                !
 ! R16   R(6,7)                  1.1405         estimate D2E/DX2                !
 ! R17   R(8,9)                  1.2127         estimate D2E/DX2                !
 ! R18   R(8,10)                 1.3395         estimate D2E/DX2                !
 ! R19   R(10,11)                1.4496         estimate D2E/DX2                !
 ! R20   R(11,12)                1.5325         estimate D2E/DX2                !
 ! R21   R(11,13)                1.5356         estimate D2E/DX2                !
 ! R22   R(11,14)                1.5325         estimate D2E/DX2                !
 ! R23   R(12,24)                1.0958         estimate D2E/DX2                !
 ! R24   R(12,25)                1.0953         estimate D2E/DX2                !
 ! R25   R(12,26)                1.0943         estimate D2E/DX2                !
 ! R26   R(13,27)                1.0963         estimate D2E/DX2                !
 ! R27   R(13,28)                1.095          estimate D2E/DX2                !
 ! R28   R(13,29)                1.0964         estimate D2E/DX2                !
 ! R29   R(14,30)                1.0959         estimate D2E/DX2                !
 ! R30   R(14,31)                1.0944         estimate D2E/DX2                !
 ! R31   R(14,32)                1.0953         estimate D2E/DX2                !
 ! A1    A(2,1,15)             111.5191         estimate D2E/DX2                !
 ! A2    A(2,1,16)             110.0181         estimate D2E/DX2                !
 ! A3    A(2,1,17)             111.0825         estimate D2E/DX2                !
 ! A4    A(15,1,16)            107.5066         estimate D2E/DX2                !
 ! A5    A(15,1,17)            108.5486         estimate D2E/DX2                !
 ! A6    A(16,1,17)            108.0318         estimate D2E/DX2                !
 ! A7    A(1,2,3)              113.6537         estimate D2E/DX2                !
 ! A8    A(1,2,18)             109.6604         estimate D2E/DX2                !
 ! A9    A(1,2,19)             108.2599         estimate D2E/DX2                !
 ! A10   A(3,2,18)             110.5202         estimate D2E/DX2                !
 ! A11   A(3,2,19)             108.1504         estimate D2E/DX2                !
 ! A12   A(18,2,19)            106.2952         estimate D2E/DX2                !
 ! A13   A(2,3,4)              115.2919         estimate D2E/DX2                !
 ! A14   A(2,3,20)             108.2284         estimate D2E/DX2                !
 ! A15   A(2,3,21)             108.5893         estimate D2E/DX2                !
 ! A16   A(4,3,20)             109.5056         estimate D2E/DX2                !
 ! A17   A(4,3,21)             108.4557         estimate D2E/DX2                !
 ! A18   A(20,3,21)            106.4083         estimate D2E/DX2                !
 ! A19   A(3,4,5)              112.6047         estimate D2E/DX2                !
 ! A20   A(3,4,22)             108.4764         estimate D2E/DX2                !
 ! A21   A(3,4,23)             111.8165         estimate D2E/DX2                !
 ! A22   A(5,4,22)             107.1958         estimate D2E/DX2                !
 ! A23   A(5,4,23)             109.826          estimate D2E/DX2                !
 ! A24   A(22,4,23)            106.6263         estimate D2E/DX2                !
 ! A25   A(4,5,6)              123.3794         estimate D2E/DX2                !
 ! A26   A(4,5,8)              121.8948         estimate D2E/DX2                !
 ! A27   A(6,5,8)              114.6689         estimate D2E/DX2                !
 ! A28   A(5,8,9)              120.9958         estimate D2E/DX2                !
 ! A29   A(5,8,10)             108.3901         estimate D2E/DX2                !
 ! A30   A(9,8,10)             130.6086         estimate D2E/DX2                !
 ! A31   A(8,10,11)            120.2296         estimate D2E/DX2                !
 ! A32   A(10,11,12)           111.3064         estimate D2E/DX2                !
 ! A33   A(10,11,13)           104.789          estimate D2E/DX2                !
 ! A34   A(10,11,14)           111.0184         estimate D2E/DX2                !
 ! A35   A(12,11,13)           108.732          estimate D2E/DX2                !
 ! A36   A(12,11,14)           111.8785         estimate D2E/DX2                !
 ! A37   A(13,11,14)           108.8186         estimate D2E/DX2                !
 ! A38   A(11,12,24)           110.7873         estimate D2E/DX2                !
 ! A39   A(11,12,25)           111.3241         estimate D2E/DX2                !
 ! A40   A(11,12,26)           111.8724         estimate D2E/DX2                !
 ! A41   A(24,12,25)           108.579          estimate D2E/DX2                !
 ! A42   A(24,12,26)           106.6823         estimate D2E/DX2                !
 ! A43   A(25,12,26)           107.396          estimate D2E/DX2                !
 ! A44   A(11,13,27)           110.8242         estimate D2E/DX2                !
 ! A45   A(11,13,28)           111.8282         estimate D2E/DX2                !
 ! A46   A(11,13,29)           110.7864         estimate D2E/DX2                !
 ! A47   A(27,13,28)           108.4223         estimate D2E/DX2                !
 ! A48   A(27,13,29)           106.3474         estimate D2E/DX2                !
 ! A49   A(28,13,29)           108.4354         estimate D2E/DX2                !
 ! A50   A(11,14,30)           110.7716         estimate D2E/DX2                !
 ! A51   A(11,14,31)           111.8172         estimate D2E/DX2                !
 ! A52   A(11,14,32)           111.3697         estimate D2E/DX2                !
 ! A53   A(30,14,31)           106.6065         estimate D2E/DX2                !
 ! A54   A(30,14,32)           108.5365         estimate D2E/DX2                !
 ! A55   A(31,14,32)           107.5386         estimate D2E/DX2                !
 ! A56   L(5,6,7,14,-1)        180.5242         estimate D2E/DX2                !
 ! A57   L(5,6,7,14,-2)        179.682          estimate D2E/DX2                !
 ! D1    D(15,1,2,3)           -66.9758         estimate D2E/DX2                !
 ! D2    D(15,1,2,18)           57.2784         estimate D2E/DX2                !
 ! D3    D(15,1,2,19)          172.8498         estimate D2E/DX2                !
 ! D4    D(16,1,2,3)           173.828          estimate D2E/DX2                !
 ! D5    D(16,1,2,18)          -61.9177         estimate D2E/DX2                !
 ! D6    D(16,1,2,19)           53.6536         estimate D2E/DX2                !
 ! D7    D(17,1,2,3)            54.2547         estimate D2E/DX2                !
 ! D8    D(17,1,2,18)          178.5089         estimate D2E/DX2                !
 ! D9    D(17,1,2,19)          -65.9197         estimate D2E/DX2                !
 ! D10   D(1,2,3,4)             63.2591         estimate D2E/DX2                !
 ! D11   D(1,2,3,20)          -173.7552         estimate D2E/DX2                !
 ! D12   D(1,2,3,21)           -58.6337         estimate D2E/DX2                !
 ! D13   D(18,2,3,4)           -60.5292         estimate D2E/DX2                !
 ! D14   D(18,2,3,20)           62.4564         estimate D2E/DX2                !
 ! D15   D(18,2,3,21)          177.578          estimate D2E/DX2                !
 ! D16   D(19,2,3,4)          -176.5046         estimate D2E/DX2                !
 ! D17   D(19,2,3,20)          -53.519          estimate D2E/DX2                !
 ! D18   D(19,2,3,21)           61.6026         estimate D2E/DX2                !
 ! D19   D(2,3,4,5)             71.2683         estimate D2E/DX2                !
 ! D20   D(2,3,4,22)          -170.2575         estimate D2E/DX2                !
 ! D21   D(2,3,4,23)           -52.9536         estimate D2E/DX2                !
 ! D22   D(20,3,4,5)           -51.036          estimate D2E/DX2                !
 ! D23   D(20,3,4,22)           67.4382         estimate D2E/DX2                !
 ! D24   D(20,3,4,23)         -175.258          estimate D2E/DX2                !
 ! D25   D(21,3,4,5)          -166.7671         estimate D2E/DX2                !
 ! D26   D(21,3,4,22)          -48.2928         estimate D2E/DX2                !
 ! D27   D(21,3,4,23)           69.011          estimate D2E/DX2                !
 ! D28   D(3,4,5,6)             73.8552         estimate D2E/DX2                !
 ! D29   D(3,4,5,8)           -109.0366         estimate D2E/DX2                !
 ! D30   D(22,4,5,6)           -45.3671         estimate D2E/DX2                !
 ! D31   D(22,4,5,8)           131.7411         estimate D2E/DX2                !
 ! D32   D(23,4,5,6)          -160.8323         estimate D2E/DX2                !
 ! D33   D(23,4,5,8)            16.2758         estimate D2E/DX2                !
 ! D34   D(4,5,8,9)            -78.7344         estimate D2E/DX2                !
 ! D35   D(4,5,8,10)           100.4977         estimate D2E/DX2                !
 ! D36   D(6,5,8,9)             98.6084         estimate D2E/DX2                !
 ! D37   D(6,5,8,10)           -82.1595         estimate D2E/DX2                !
 ! D38   D(5,8,10,11)          179.5915         estimate D2E/DX2                !
 ! D39   D(9,8,10,11)           -1.2756         estimate D2E/DX2                !
 ! D40   D(8,10,11,12)          62.0431         estimate D2E/DX2                !
 ! D41   D(8,10,11,13)         179.3965         estimate D2E/DX2                !
 ! D42   D(8,10,11,14)         -63.291          estimate D2E/DX2                !
 ! D43   D(10,11,12,24)         49.859          estimate D2E/DX2                !
 ! D44   D(10,11,12,25)        170.7916         estimate D2E/DX2                !
 ! D45   D(10,11,12,26)        -69.0394         estimate D2E/DX2                !
 ! D46   D(13,11,12,24)        -65.0745         estimate D2E/DX2                !
 ! D47   D(13,11,12,25)         55.8582         estimate D2E/DX2                !
 ! D48   D(13,11,12,26)        176.0271         estimate D2E/DX2                !
 ! D49   D(14,11,12,24)        174.7121         estimate D2E/DX2                !
 ! D50   D(14,11,12,25)        -64.3552         estimate D2E/DX2                !
 ! D51   D(14,11,12,26)         55.8137         estimate D2E/DX2                !
 ! D52   D(10,11,13,27)         58.6857         estimate D2E/DX2                !
 ! D53   D(10,11,13,28)        179.7876         estimate D2E/DX2                !
 ! D54   D(10,11,13,29)        -59.12           estimate D2E/DX2                !
 ! D55   D(12,11,13,27)        177.7866         estimate D2E/DX2                !
 ! D56   D(12,11,13,28)        -61.1114         estimate D2E/DX2                !
 ! D57   D(12,11,13,29)         59.9809         estimate D2E/DX2                !
 ! D58   D(14,11,13,27)        -60.1223         estimate D2E/DX2                !
 ! D59   D(14,11,13,28)         60.9796         estimate D2E/DX2                !
 ! D60   D(14,11,13,29)       -177.928          estimate D2E/DX2                !
 ! D61   D(10,11,14,30)        -50.6516         estimate D2E/DX2                !
 ! D62   D(10,11,14,31)         68.1048         estimate D2E/DX2                !
 ! D63   D(10,11,14,32)       -171.5505         estimate D2E/DX2                !
 ! D64   D(12,11,14,30)       -175.6644         estimate D2E/DX2                !
 ! D65   D(12,11,14,31)        -56.9079         estimate D2E/DX2                !
 ! D66   D(12,11,14,32)         63.4368         estimate D2E/DX2                !
 ! D67   D(13,11,14,30)         64.1728         estimate D2E/DX2                !
 ! D68   D(13,11,14,31)       -177.0707         estimate D2E/DX2                !
 ! D69   D(13,11,14,32)        -56.726          estimate D2E/DX2                !
 --------------------------------------------------------------------------------
 Trust Radius=3.00D-01 FncErr=1.00D-07 GrdErr=1.00D-06 EigMax=2.50D+02 EigMin=1.00D-04
 Number of steps in this run=    167 maximum allowed number of steps=    192.
 GradGradGradGradGradGradGradGradGradGradGradGradGradGradGradGradGradGrad

                          Input orientation:                          
 ---------------------------------------------------------------------
 Center     Atomic      Atomic             Coordinates (Angstroms)
 Number     Number       Type             X           Y           Z
 ---------------------------------------------------------------------
      1          6           0        0.923220   -0.022480   -0.059990
      2          6           0        0.526130    1.208890    0.740030
      3          6           0        0.745050    2.525770   -0.010070
      4          6           0       -0.089040    2.701070   -1.278690
      5          6           0       -1.532260    2.926590   -0.988290
      6          7           0       -2.005740    4.055360   -0.516450
      7          7           0       -2.406420    5.039560   -0.102330
      8          6           0       -2.557130    1.898530   -1.274190
      9          8           0       -2.973030    1.727600   -2.400410
     10          8           0       -2.857970    1.271870   -0.129220
     11          6           0       -3.849090    0.214080   -0.114760
     12          6           0       -3.418860   -0.964190   -0.995190
     13          6           0       -3.900330   -0.255120    1.346520
     14          6           0       -5.229560    0.748840   -0.510960
     15          1           0        0.267760   -0.168570   -0.923340
     16          1           0        0.846980   -0.917070    0.566500
     17          1           0        1.955370    0.055090   -0.415650
     18          1           0       -0.516170    1.119000    1.061110
     19          1           0        1.129310    1.232960    1.655860
     20          1           0        0.539060    3.352740    0.681000
     21          1           0        1.805980    2.603170   -0.278500
     22          1           0        0.275950    3.585730   -1.815320
     23          1           0        0.024170    1.852830   -1.960100
     24          1           0       -2.393860   -1.271790   -0.759580
     25          1           0       -4.081650   -1.825630   -0.859530
     26          1           0       -3.432560   -0.705070   -2.058250
     27          1           0       -4.167370    0.573530    2.012790
     28          1           0       -4.626450   -1.062140    1.489800
     29          1           0       -2.916950   -0.611060    1.675590
     30          1           0       -5.485850    1.637100    0.077560
     31          1           0       -5.262560    1.050150   -1.562540
     32          1           0       -6.008570   -0.006020   -0.359300
 ---------------------------------------------------------------------
                    Distance matrix (angstroms):
                    1          2          3          4          5
     1  C    0.000000
     2  C    1.521179   0.000000
     3  C    2.554959   1.531257   0.000000
     4  C    3.150813   2.584621   1.528343   0.000000
     5  C    3.948181   3.189757   2.510719   1.489320   0.000000
     6  N    5.041423   4.011421   3.187932   2.467560   1.311845
     7  N    6.059088   4.897290   4.032297   3.496085   2.452289
     8  C    4.156609   3.746889   3.591075   2.595296   1.479529
     9  O    4.870432   4.730280   4.491650   3.243963   2.346802
    10  O    3.997191   3.494524   3.816833   3.321275   2.287708
    11  C    4.778483   4.567588   5.144025   4.655945   3.672665
    12  C    4.540383   4.826615   5.521633   4.960061   4.324058
    13  C    5.029814   4.701564   5.581509   5.491513   4.602431
    14  C    6.217315   5.908011   6.253346   5.552077   4.317461
    15  H    1.093775   2.175075   2.884673   2.913488   3.581104
    16  H    1.094803   2.157026   3.492273   4.167949   4.780364
    17  H    1.094461   2.170156   2.780940   3.453355   4.553789
    18  H    2.152135   1.094332   2.171890   2.856580   2.915452
    19  H    2.136058   1.096882   2.143440   3.500187   4.116293
    20  H    3.476889   2.144702   1.097219   2.158603   2.694160
    21  H    2.778678   2.149287   1.097095   2.145009   3.428155
    22  H    4.064397   3.498824   2.145343   1.097184   2.094771
    23  H    2.817001   2.820873   2.185208   1.093914   2.125994
    24  H    3.612924   4.114480   4.983571   4.622260   4.291976
    25  H    5.379530   5.744436   6.553876   6.050425   5.394401
    26  H    4.840640   5.211990   5.664432   4.836179   4.236143
    27  H    5.528630   4.904339   5.659954   5.656239   4.635426
    28  H    5.855047   5.680564   6.631419   6.512632   5.623603
    29  H    4.255064   4.005283   5.107974   5.262609   4.639891
    30  H    6.621881   6.063508   6.294563   5.665422   4.292982
    31  H    6.455390   6.231850   6.378009   5.437961   4.214965
    32  H    6.938269   6.736975   7.221032   6.573770   5.388245
                    6          7          8          9         10
     6  N    0.000000
     7  N    1.140478   0.000000
     8  C    2.351620   3.355896   0.000000
     9  O    3.146970   4.070786   1.212667   0.000000
    10  O    2.936675   3.794747   1.339464   2.319317   0.000000
    11  C    4.279571   5.036537   2.418845   2.877919   1.449637
    12  C    5.236600   6.153637   3.002596   3.069062   2.462614
    13  C    5.063632   5.688987   3.648358   4.339418   2.365591
    14  C    4.618021   5.152415   3.007688   3.101600   2.458399
    15  H    4.814140   5.911845   3.517954   4.034838   3.532093
    16  H    5.834025   6.820072   4.785782   5.512650   4.359144
    17  H    5.630516   6.630861   4.949547   5.570071   4.973011
    18  H    3.650990   4.505267   3.197939   4.288202   2.631403
    19  H    4.744830   5.484781   4.755840   5.790267   4.368801
    20  H    2.898891   3.483507   3.940036   4.946811   4.065254
    21  H    4.085913   4.869430   4.530413   5.301704   4.852533
    22  H    2.667157   3.499009   3.341528   3.788251   4.244801
    23  H    3.325026   4.417502   2.671268   3.031957   3.463577
    24  H    5.346801   6.345492   3.215962   3.467579   2.661383
    25  H    6.246051   7.107080   4.045426   4.028498   3.409582
    26  H    5.203331   6.154621   2.856547   2.499225   2.821277
    27  H    4.815894   5.245960   3.892651   4.715364   2.605842
    28  H    6.089496   6.685369   4.548329   5.064601   3.346095
    29  H    5.235534   5.945683   3.889565   4.699601   2.608878
    30  H    4.279252   4.592601   3.236198   3.530268   2.661185
    31  H    4.553292   5.119096   2.849955   2.530398   2.808134
    32  H    5.704573   6.204788   4.046823   4.047971   3.407671
                   11         12         13         14         15
    11  C    0.000000
    12  C    1.532506   0.000000
    13  C    1.535615   2.493632   0.000000
    14  C    1.532527   2.539210   2.494999   0.000000
    15  H    4.212918   3.772180   4.746865   5.588580   0.000000
    16  H    4.878185   4.542960   4.856291   6.392223   1.765041
    17  H    5.814428   5.500650   6.122965   7.218974   1.776457
    18  H    3.648274   4.122337   3.663633   4.982416   2.492072
    19  H    5.381234   5.704506   5.254270   6.735333   3.059220
    20  H    5.453465   6.091849   5.759145   6.440345   3.879064
    21  H    6.141203   6.366997   6.585779   7.279519   3.234885
    22  H    5.592485   5.918277   6.495435   6.329292   3.858816
    23  H    4.592703   4.552044   5.547873   5.560619   2.284790
    24  H    2.177452   1.095790   2.781857   3.490838   2.885850
    25  H    2.183846   1.095342   2.714044   2.840263   4.654813
    26  H    2.189860   1.094270   3.466082   2.781577   3.907457
    27  H    2.181049   3.460172   1.096306   2.743774   5.370470
    28  H    2.192633   2.764605   1.095016   2.765218   5.529467
    29  H    2.180618   2.740380   1.096365   3.460996   4.134321
    30  H    2.177374   3.491411   2.775721   1.095923   6.112796
    31  H    2.189287   2.789029   3.467280   1.094394   5.698973
    32  H    2.184399   2.833557   2.723334   1.095295   6.303720
                   16         17         18         19         20
    16  H    0.000000
    17  H    1.771508   0.000000
    18  H    2.499680   3.069403   0.000000
    19  H    2.426735   2.522084   1.753374   0.000000
    20  H    4.282429   3.752742   2.499518   2.406702   0.000000
    21  H    3.745103   2.556138   3.064261   2.465179   1.757152
    22  H    5.125851   4.152704   3.871183   4.279350   2.520937
    23  H    3.838368   3.057242   3.155659   3.831545   3.080625
    24  H    3.519568   4.560121   3.543516   4.951853   5.662470
    25  H    5.210608   6.338750   5.007230   6.544942   7.109129
    26  H    5.024810   5.683816   4.643594   6.193644   6.304211
    27  H    5.427462   6.607121   3.812413   5.349492   5.625669
    28  H    5.552654   6.942571   4.672852   6.198696   6.843085
    29  H    3.935847   5.343832   3.022323   4.446686   5.352095
    30  H    6.845990   7.623501   5.092496   6.812834   6.293417
    31  H    6.762340   7.375908   5.423698   7.158737   6.632811
    32  H    6.977513   7.964374   5.783571   7.519659   7.432022
                   21         22         23         24         25
    21  H    0.000000
    22  H    2.380805   0.000000
    23  H    2.562350   1.757071   0.000000
    24  H    5.734580   5.642515   4.129330   0.000000
    25  H    7.390267   7.013204   5.621395   1.779147   0.000000
    26  H    6.446260   5.676533   4.301333   1.756876   1.764625
    27  H    6.711956   6.593244   5.915190   3.773139   3.743466
    28  H    7.611671   7.520641   6.482833   3.176180   2.529639
    29  H    6.037865   6.324090   5.285753   2.576866   3.042785
    30  H    7.364160   6.370125   5.878683   4.326990   3.852326
    31  H    7.350162   6.096569   5.362076   3.776982   3.187300
    32  H    8.239029   7.383485   6.512437   3.850783   2.697078
                   26         27         28         29         30
    26  H    0.000000
    27  H    4.329911   0.000000
    28  H    3.760523   1.777552   0.000000
    29  H    3.770445   1.755137   1.777746   0.000000
    30  H    3.776698   2.571903   3.165263   3.769240   0.000000
    31  H    2.583685   3.769561   3.766057   4.329780   1.756217
    32  H    3.164005   3.058220   2.538664   3.750329   1.778743
                   31         32
    31  H    0.000000
    32  H    1.766299   0.000000
 Stoichiometry    C10H18N2O2
 Framework group  C1[X(C10H18N2O2)]
 Deg. of freedom    90
 Full point group                 C1      NOp   1
 Largest Abelian subgroup         C1      NOp   1
 Largest concise Abelian subgroup C1      NOp   1
                         Standard orientation:                         
 ---------------------------------------------------------------------
 Center     Atomic      Atomic             Coordinates (Angstroms)
 Number     Number       Type             X           Y           Z
 ---------------------------------------------------------------------
      1          6           0       -1.885172   -2.759065    0.307297
      2          6           0       -2.113153   -1.713932   -0.774232
      3          6           0       -2.926995   -0.506621   -0.300089
      4          6           0       -2.275209    0.328162    0.801794
      5          6           0       -1.107489    1.111765    0.311415
      6          7           0       -1.220226    2.182387   -0.438251
      7          7           0       -1.329248    3.109679   -1.093181
      8          6           0        0.280202    0.768008    0.692397
      9          8           0        0.726103    1.080962    1.775815
     10          8           0        0.842068    0.095022   -0.320302
     11          6           0        2.214372   -0.361436   -0.220924
     12          6           0        2.388016   -1.357011    0.931141
     13          6           0        2.482328   -1.089269   -1.546281
     14          6           0        3.180287    0.822520   -0.103043
     15          1           0       -1.239228   -2.378147    1.103539
     16          1           0       -1.396104   -3.640311   -0.120268
     17          1           0       -2.832886   -3.079491    0.751157
     18          1           0       -1.150732   -1.391153   -1.183038
     19          1           0       -2.655479   -2.188020   -1.601440
     20          1           0       -3.133448    0.130764   -1.169000
     21          1           0       -3.899906   -0.861203    0.062310
     22          1           0       -3.014267    1.047403    1.176356
     23          1           0       -1.976868   -0.287334    1.655494
     24          1           0        1.628649   -2.145464    0.881560
     25          1           0        3.378380   -1.824354    0.907853
     26          1           0        2.276749   -0.874646    1.907036
     27          1           0        2.328919   -0.416604   -2.398264
     28          1           0        3.502975   -1.482861   -1.595531
     29          1           0        1.782556   -1.922445   -1.681020
     30          1           0        2.989239    1.559920   -0.890944
     31          1           0        3.066213    1.347106    0.850631
     32          1           0        4.223069    0.495788   -0.177354
 ---------------------------------------------------------------------
 Rotational constants (GHZ):           0.7908036           0.5235741           0.3963619
 Standard basis: 6-31G(d) (6D, 7F)
 There are   246 symmetry adapted cartesian basis functions of A   symmetry.
 There are   246 symmetry adapted basis functions of A   symmetry.
   246 basis functions,   464 primitive gaussians,   246 cartesian basis functions
    54 alpha electrons       54 beta electrons
       nuclear repulsion energy       958.2324347515 Hartrees.
 NAtoms=   32 NActive=   32 NUniq=   32 SFac= 1.00D+00 NAtFMM=   60 NAOKFM=F Big=F
 Integral buffers will be    131072 words long.
 Raffenetti 2 integral format.
 Two-electron integral symmetry is turned on.
 Nuclear repulsion after empirical dispersion term =      958.1773054794 Hartrees.
 One-electron integrals computed using PRISM.
 NBasis=   246 RedAO= T EigKep=  2.02D-03  NBF=   246
 NBsUse=   246 1.00D-06 EigRej= -1.00D+00 NBFU=   246
 ExpMin= 1.61D-01 ExpMax= 5.48D+03 ExpMxC= 8.25D+02 IAcc=3 IRadAn=         5 AccDes= 0.00D+00
 Harris functional with IExCor=  402 and IRadAn=       5 diagonalized for initial guess.
 HarFok:  IExCor=  402 AccDes= 0.00D+00 IRadAn=         5 IDoV= 1 UseB2=F ITyADJ=14
 ICtDFT=  3500011 ScaDFX=  1.000000  1.000000  1.000000  1.000000
 FoFCou: FMM=F IPFlag=           0 FMFlag=      100000 FMFlg1=           0
         NFxFlg=           0 DoJE=T BraDBF=F KetDBF=T FulRan=T
         wScrn=  0.000000 ICntrl=       500 IOpCl=  0 I1Cent=   200000004 NGrid=           0
         NMat0=    1 NMatS0=      1 NMatT0=    0 NMatD0=    1 NMtDS0=    0 NMtDT0=    0
 Petite list used in FoFCou.
 Keep R1 ints in memory in canonical form, NReq=469054116.
 Requested convergence on RMS density matrix=1.00D-08 within  32 cycles.
 Requested convergence on MAX density matrix=1.00D-06.
 Requested convergence on             energy=1.00D-06.
 No special actions if energy rises.
 Integral accuracy reduced to 1.0D-05 until final iterations.
 Failed to achieve initial convergence to 1.0D-08 in 10 cycles.
 Switch to full accuracy anyway.
 SCF Done:  E(RB3LYP) =  -651.861086829     A.U. after   18 cycles
            NFock= 18  Conv=0.73D-08     -V/T= 2.0093
 QCSCF skips out because SCF is already converged.

 **********************************************************************

            Population analysis using the SCF density.

 **********************************************************************

 Orbital symmetries:
       Occupied  (A) (A) (A) (A) (A) (A) (A) (A) (A) (A) (A) (A)
                 (A) (A) (A) (A) (A) (A) (A) (A) (A) (A) (A) (A)
                 (A) (A) (A) (A) (A) (A) (A) (A) (A) (A) (A) (A)
                 (A) (A) (A) (A) (A) (A) (A) (A) (A) (A) (A) (A)
                 (A) (A) (A) (A) (A) (A)
       Virtual   (A) (A) (A) (A) (A) (A) (A) (A) (A) (A) (A) (A)
                 (A) (A) (A) (A) (A) (A) (A) (A) (A) (A) (A) (A)
                 (A) (A) (A) (A) (A) (A) (A) (A) (A) (A) (A) (A)
                 (A) (A) (A) (A) (A) (A) (A) (A) (A) (A) (A) (A)
                 (A) (A) (A) (A) (A) (A) (A) (A) (A) (A) (A) (A)
                 (A) (A) (A) (A) (A) (A) (A) (A) (A) (A) (A) (A)
                 (A) (A) (A) (A) (A) (A) (A) (A) (A) (A) (A) (A)
                 (A) (A) (A) (A) (A) (A) (A) (A) (A) (A) (A) (A)
                 (A) (A) (A) (A) (A) (A) (A) (A) (A) (A) (A) (A)
                 (A) (A) (A) (A) (A) (A) (A) (A) (A) (A) (A) (A)
                 (A) (A) (A) (A) (A) (A) (A) (A) (A) (A) (A) (A)
                 (A) (A) (A) (A) (A) (A) (A) (A) (A) (A) (A) (A)
                 (A) (A) (A) (A) (A) (A) (A) (A) (A) (A) (A) (A)
                 (A) (A) (A) (A) (A) (A) (A) (A) (A) (A) (A) (A)
                 (A) (A) (A) (A) (A) (A) (A) (A) (A) (A) (A) (A)
                 (A) (A) (A) (A) (A) (A) (A) (A) (A) (A) (A) (A)
 The electronic state is 1-A.
 Alpha  occ. eigenvalues --  -19.20433 -19.14810 -14.47368 -14.40299 -10.32991
 Alpha  occ. eigenvalues --  -10.26370 -10.22653 -10.20472 -10.18535 -10.18487
 Alpha  occ. eigenvalues --  -10.18197 -10.18175 -10.17887 -10.17551  -1.11502
 Alpha  occ. eigenvalues --   -1.10168  -1.03095  -0.86827  -0.81667  -0.79726
 Alpha  occ. eigenvalues --   -0.73312  -0.69968  -0.69925  -0.67316  -0.65591
 Alpha  occ. eigenvalues --   -0.58766  -0.56252  -0.51963  -0.50480  -0.48823
 Alpha  occ. eigenvalues --   -0.47606  -0.47379  -0.45834  -0.45445  -0.45398
 Alpha  occ. eigenvalues --   -0.44237  -0.42921  -0.42262  -0.41924  -0.40160
 Alpha  occ. eigenvalues --   -0.39599  -0.39401  -0.38967  -0.37776  -0.37007
 Alpha  occ. eigenvalues --   -0.36262  -0.35450  -0.33604  -0.33431  -0.33183
 Alpha  occ. eigenvalues --   -0.32720  -0.30773  -0.28056  -0.20284
 Alpha virt. eigenvalues --   -0.04949   0.00172   0.02491   0.06554   0.09206
 Alpha virt. eigenvalues --    0.10617   0.11146   0.12408   0.14097   0.14823
 Alpha virt. eigenvalues --    0.14884   0.15338   0.16197   0.16434   0.17427
 Alpha virt. eigenvalues --    0.17551   0.18186   0.18778   0.19874   0.20228
 Alpha virt. eigenvalues --    0.20419   0.21113   0.21457   0.22840   0.23118
 Alpha virt. eigenvalues --    0.24019   0.24712   0.25035   0.27322   0.27803
 Alpha virt. eigenvalues --    0.32007   0.37307   0.37774   0.40868   0.47084
 Alpha virt. eigenvalues --    0.48725   0.49585   0.50287   0.50848   0.52126
 Alpha virt. eigenvalues --    0.52906   0.53558   0.54515   0.55544   0.56813
 Alpha virt. eigenvalues --    0.58217   0.59388   0.61661   0.62447   0.63563
 Alpha virt. eigenvalues --    0.64953   0.65577   0.67362   0.68052   0.69924
 Alpha virt. eigenvalues --    0.70341   0.70900   0.71368   0.72043   0.73266
 Alpha virt. eigenvalues --    0.74783   0.77271   0.80150   0.80529   0.83085
 Alpha virt. eigenvalues --    0.83301   0.83806   0.85059   0.86852   0.87346
 Alpha virt. eigenvalues --    0.87800   0.88910   0.89260   0.89380   0.89884
 Alpha virt. eigenvalues --    0.90457   0.91885   0.92525   0.92969   0.93871
 Alpha virt. eigenvalues --    0.94960   0.95374   0.96115   0.97200   0.97984
 Alpha virt. eigenvalues --    0.99230   1.00677   1.01715   1.02119   1.05343
 Alpha virt. eigenvalues --    1.07565   1.08155   1.11398   1.12907   1.16395
 Alpha virt. eigenvalues --    1.17723   1.22456   1.33138   1.33980   1.36067
 Alpha virt. eigenvalues --    1.36603   1.37415   1.40613   1.40668   1.45807
 Alpha virt. eigenvalues --    1.46882   1.49607   1.51176   1.51372   1.52385
 Alpha virt. eigenvalues --    1.54516   1.58380   1.62010   1.63805   1.67659
 Alpha virt. eigenvalues --    1.68990   1.71775   1.73416   1.74517   1.76984
 Alpha virt. eigenvalues --    1.78452   1.79375   1.82239   1.83553   1.85289
 Alpha virt. eigenvalues --    1.85998   1.86811   1.89570   1.91135   1.92836
 Alpha virt. eigenvalues --    1.94307   1.95815   1.97458   1.98241   2.00253
 Alpha virt. eigenvalues --    2.02429   2.02978   2.04495   2.07531   2.08113
 Alpha virt. eigenvalues --    2.09288   2.10378   2.12206   2.15219   2.18638
 Alpha virt. eigenvalues --    2.20846   2.22883   2.23468   2.24699   2.26012
 Alpha virt. eigenvalues --    2.26890   2.28224   2.29733   2.31805   2.33223
 Alpha virt. eigenvalues --    2.36280   2.40518   2.43158   2.45388   2.48184
 Alpha virt. eigenvalues --    2.52342   2.53341   2.56050   2.61566   2.61843
 Alpha virt. eigenvalues --    2.63210   2.67511   2.69601   2.72039   2.72425
 Alpha virt. eigenvalues --    2.76667   2.84371   2.90175   2.95830   3.07264
 Alpha virt. eigenvalues --    3.10988   3.20676   3.25700   3.54958   4.06470
 Alpha virt. eigenvalues --    4.08975   4.13106   4.20210   4.27119   4.29001
 Alpha virt. eigenvalues --    4.30182   4.31097   4.38036   4.45471   4.56896
 Alpha virt. eigenvalues --    4.68414   4.70055
          Condensed to atoms (all electrons):
               1          2          3          4          5          6
     1  C    5.075680   0.377963  -0.051277  -0.004504  -0.000890   0.000009
     2  C    0.377963   4.985968   0.385012  -0.044677  -0.003724  -0.000680
     3  C   -0.051277   0.385012   5.029058   0.368136  -0.056012  -0.004759
     4  C   -0.004504  -0.044677   0.368136   5.019794   0.366011  -0.036896
     5  C   -0.000890  -0.003724  -0.056012   0.366011   5.183018   0.392696
     6  N    0.000009  -0.000680  -0.004759  -0.036896   0.392696   6.069420
     7  N   -0.000000  -0.000019   0.000155   0.001461  -0.123879   0.541551
     8  C    0.000344   0.000282   0.000865  -0.032205   0.356407  -0.032650
     9  O   -0.000001  -0.000021   0.000092  -0.001843  -0.076588  -0.003879
    10  O   -0.000234  -0.002465  -0.000162   0.003128  -0.110281  -0.003985
    11  C    0.000023   0.000071  -0.000013  -0.000228   0.008696   0.000217
    12  C   -0.000221  -0.000030   0.000004   0.000041  -0.000614  -0.000012
    13  C   -0.000011  -0.000072   0.000003   0.000006  -0.000574  -0.000013
    14  C   -0.000000  -0.000004  -0.000001  -0.000001  -0.000589  -0.000027
    15  H    0.376162  -0.035814  -0.005627   0.003076  -0.000288  -0.000003
    16  H    0.374637  -0.029894   0.004819   0.000110   0.000013   0.000000
    17  H    0.376936  -0.037429  -0.004203  -0.000712   0.000103  -0.000000
    18  H   -0.039290   0.372579  -0.036954  -0.007552   0.007179   0.000231
    19  H   -0.041421   0.373822  -0.034249   0.005374  -0.000103  -0.000006
    20  H    0.005346  -0.034905   0.375421  -0.038195  -0.010007   0.002067
    21  H   -0.006124  -0.039991   0.357521  -0.037386   0.007344   0.000297
    22  H    0.000044   0.005231  -0.042800   0.368228  -0.040642  -0.007121
    23  H    0.004285  -0.007327  -0.038418   0.371262  -0.034861   0.003034
    24  H    0.000449  -0.000097  -0.000004   0.000005  -0.000082   0.000000
    25  H    0.000002   0.000001  -0.000000  -0.000001   0.000016   0.000000
    26  H   -0.000006   0.000004   0.000001  -0.000001   0.000165   0.000000
    27  H    0.000000  -0.000005   0.000000   0.000001   0.000005  -0.000001
    28  H   -0.000000   0.000001  -0.000000  -0.000000   0.000009   0.000000
    29  H    0.000036  -0.000070  -0.000002   0.000001  -0.000015  -0.000000
    30  H    0.000000  -0.000000   0.000000   0.000001  -0.000088   0.000031
    31  H   -0.000000   0.000000  -0.000000  -0.000001   0.000129   0.000001
    32  H    0.000000   0.000000   0.000000   0.000000   0.000013  -0.000000
               7          8          9         10         11         12
     1  C   -0.000000   0.000344  -0.000001  -0.000234   0.000023  -0.000221
     2  C   -0.000019   0.000282  -0.000021  -0.002465   0.000071  -0.000030
     3  C    0.000155   0.000865   0.000092  -0.000162  -0.000013   0.000004
     4  C    0.001461  -0.032205  -0.001843   0.003128  -0.000228   0.000041
     5  C   -0.123879   0.356407  -0.076588  -0.110281   0.008696  -0.000614
     6  N    0.541551  -0.032650  -0.003879  -0.003985   0.000217  -0.000012
     7  N    6.846231  -0.000238   0.000081  -0.000072  -0.000012  -0.000000
     8  C   -0.000238   4.358438   0.522837   0.256827  -0.011271  -0.003926
     9  O    0.000081   0.522837   8.062278  -0.060950   0.002880  -0.006064
    10  O   -0.000072   0.256827  -0.060950   8.335509   0.161612  -0.041368
    11  C   -0.000012  -0.011271   0.002880   0.161612   4.602412   0.378566
    12  C   -0.000000  -0.003926  -0.006064  -0.041368   0.378566   5.203191
    13  C    0.000002   0.004051   0.000188  -0.048389   0.401507  -0.071303
    14  C   -0.000000  -0.004585  -0.005829  -0.041209   0.378690  -0.064880
    15  H   -0.000000   0.000717  -0.000034   0.000471  -0.000046   0.000051
    16  H   -0.000000  -0.000017   0.000000  -0.000001   0.000005  -0.000032
    17  H   -0.000000  -0.000012  -0.000000   0.000002  -0.000000   0.000005
    18  H   -0.000039  -0.001209   0.000032   0.009352  -0.000379   0.000039
    19  H    0.000001  -0.000004  -0.000000   0.000067  -0.000003  -0.000000
    20  H    0.000381   0.000074  -0.000005  -0.000011   0.000000   0.000000
    21  H   -0.000018  -0.000106   0.000001  -0.000008   0.000000  -0.000000
    22  H    0.001006   0.002528   0.000061  -0.000088   0.000006  -0.000000
    23  H   -0.000061  -0.001669   0.002305  -0.000040  -0.000017   0.000022
    24  H    0.000000   0.000245  -0.000145  -0.000171  -0.027303   0.361637
    25  H    0.000000   0.000256   0.000205   0.002608  -0.024866   0.360122
    26  H    0.000000   0.001753   0.010456  -0.002806  -0.024189   0.364064
    27  H   -0.000000  -0.000029   0.000001   0.000446  -0.025618   0.005978
    28  H   -0.000000  -0.000037   0.000007   0.003028  -0.026105  -0.002136
    29  H    0.000000  -0.000061  -0.000001  -0.000517  -0.025549  -0.005792
    30  H    0.000005   0.000388  -0.000084   0.000121  -0.027400   0.005607
    31  H   -0.000001   0.002306   0.009266  -0.003185  -0.024018  -0.006349
    32  H   -0.000000   0.000230   0.000159   0.002652  -0.024487  -0.001691
              13         14         15         16         17         18
     1  C   -0.000011  -0.000000   0.376162   0.374637   0.376936  -0.039290
     2  C   -0.000072  -0.000004  -0.035814  -0.029894  -0.037429   0.372579
     3  C    0.000003  -0.000001  -0.005627   0.004819  -0.004203  -0.036954
     4  C    0.000006  -0.000001   0.003076   0.000110  -0.000712  -0.007552
     5  C   -0.000574  -0.000589  -0.000288   0.000013   0.000103   0.007179
     6  N   -0.000013  -0.000027  -0.000003   0.000000  -0.000000   0.000231
     7  N    0.000002  -0.000000  -0.000000  -0.000000  -0.000000  -0.000039
     8  C    0.004051  -0.004585   0.000717  -0.000017  -0.000012  -0.001209
     9  O    0.000188  -0.005829  -0.000034   0.000000  -0.000000   0.000032
    10  O   -0.048389  -0.041209   0.000471  -0.000001   0.000002   0.009352
    11  C    0.401507   0.378690  -0.000046   0.000005  -0.000000  -0.000379
    12  C   -0.071303  -0.064880   0.000051  -0.000032   0.000005   0.000039
    13  C    5.159518  -0.071310  -0.000011  -0.000002   0.000000  -0.000028
    14  C   -0.071310   5.196404   0.000002   0.000000   0.000000   0.000042
    15  H   -0.000011   0.000002   0.576465  -0.031166  -0.032169  -0.004977
    16  H   -0.000002   0.000000  -0.031166   0.574432  -0.030144  -0.002046
    17  H    0.000000   0.000000  -0.032169  -0.030144   0.577122   0.005282
    18  H   -0.000028   0.000042  -0.004977  -0.002046   0.005282   0.573415
    19  H    0.000000   0.000000   0.005602  -0.004341  -0.003990  -0.035145
    20  H    0.000000   0.000000  -0.000061  -0.000180   0.000037  -0.002688
    21  H   -0.000000  -0.000000  -0.000247  -0.000008   0.005862   0.005764
    22  H   -0.000000  -0.000000  -0.000064   0.000000  -0.000048   0.000009
    23  H   -0.000000  -0.000000   0.002909  -0.000175   0.000413   0.000115
    24  H   -0.005551   0.005539   0.001731   0.000209  -0.000009   0.000187
    25  H   -0.003741  -0.001699  -0.000002  -0.000000  -0.000000  -0.000003
    26  H    0.005219  -0.006266   0.000021  -0.000000  -0.000000  -0.000013
    27  H    0.363117  -0.005729  -0.000000  -0.000000  -0.000000   0.000047
    28  H    0.364082  -0.002095   0.000000  -0.000000   0.000000   0.000006
    29  H    0.363453   0.005848  -0.000004   0.000059   0.000000   0.001436
    30  H   -0.005723   0.362714  -0.000000  -0.000000  -0.000000  -0.000000
    31  H    0.005213   0.365013   0.000000  -0.000000  -0.000000  -0.000001
    32  H   -0.003476   0.361416  -0.000000  -0.000000  -0.000000  -0.000000
              19         20         21         22         23         24
     1  C   -0.041421   0.005346  -0.006124   0.000044   0.004285   0.000449
     2  C    0.373822  -0.034905  -0.039991   0.005231  -0.007327  -0.000097
     3  C   -0.034249   0.375421   0.357521  -0.042800  -0.038418  -0.000004
     4  C    0.005374  -0.038195  -0.037386   0.368228   0.371262   0.000005
     5  C   -0.000103  -0.010007   0.007344  -0.040642  -0.034861  -0.000082
     6  N   -0.000006   0.002067   0.000297  -0.007121   0.003034   0.000000
     7  N    0.000001   0.000381  -0.000018   0.001006  -0.000061   0.000000
     8  C   -0.000004   0.000074  -0.000106   0.002528  -0.001669   0.000245
     9  O   -0.000000  -0.000005   0.000001   0.000061   0.002305  -0.000145
    10  O    0.000067  -0.000011  -0.000008  -0.000088  -0.000040  -0.000171
    11  C   -0.000003   0.000000   0.000000   0.000006  -0.000017  -0.027303
    12  C   -0.000000   0.000000  -0.000000  -0.000000   0.000022   0.361637
    13  C    0.000000   0.000000  -0.000000  -0.000000  -0.000000  -0.005551
    14  C    0.000000   0.000000  -0.000000  -0.000000  -0.000000   0.005539
    15  H    0.005602  -0.000061  -0.000247  -0.000064   0.002909   0.001731
    16  H   -0.004341  -0.000180  -0.000008   0.000000  -0.000175   0.000209
    17  H   -0.003990   0.000037   0.005862  -0.000048   0.000413  -0.000009
    18  H   -0.035145  -0.002688   0.005764   0.000009   0.000115   0.000187
    19  H    0.609624  -0.003776  -0.004096  -0.000167   0.000055   0.000003
    20  H   -0.003776   0.600903  -0.036127  -0.001890   0.004949  -0.000000
    21  H   -0.004096  -0.036127   0.621564  -0.003139  -0.000651  -0.000000
    22  H   -0.000167  -0.001890  -0.003139   0.587645  -0.026860   0.000000
    23  H    0.000055   0.004949  -0.000651  -0.026860   0.551178  -0.000025
    24  H    0.000003  -0.000000  -0.000000   0.000000  -0.000025   0.562727
    25  H    0.000000   0.000000  -0.000000   0.000000  -0.000000  -0.025623
    26  H   -0.000000   0.000000  -0.000000   0.000000  -0.000013  -0.029799
    27  H   -0.000000  -0.000000   0.000000  -0.000000   0.000000  -0.000082
    28  H    0.000000   0.000000   0.000000   0.000000  -0.000000   0.000153
    29  H    0.000000  -0.000000   0.000000  -0.000000  -0.000000   0.003867
    30  H    0.000000  -0.000000  -0.000000  -0.000000  -0.000000  -0.000189
    31  H    0.000000   0.000000  -0.000000   0.000000  -0.000001  -0.000005
    32  H   -0.000000   0.000000   0.000000   0.000000  -0.000000  -0.000053
              25         26         27         28         29         30
     1  C    0.000002  -0.000006   0.000000  -0.000000   0.000036   0.000000
     2  C    0.000001   0.000004  -0.000005   0.000001  -0.000070  -0.000000
     3  C   -0.000000   0.000001   0.000000  -0.000000  -0.000002   0.000000
     4  C   -0.000001  -0.000001   0.000001  -0.000000   0.000001   0.000001
     5  C    0.000016   0.000165   0.000005   0.000009  -0.000015  -0.000088
     6  N    0.000000   0.000000  -0.000001   0.000000  -0.000000   0.000031
     7  N    0.000000   0.000000  -0.000000  -0.000000   0.000000   0.000005
     8  C    0.000256   0.001753  -0.000029  -0.000037  -0.000061   0.000388
     9  O    0.000205   0.010456   0.000001   0.000007  -0.000001  -0.000084
    10  O    0.002608  -0.002806   0.000446   0.003028  -0.000517   0.000121
    11  C   -0.024866  -0.024189  -0.025618  -0.026105  -0.025549  -0.027400
    12  C    0.360122   0.364064   0.005978  -0.002136  -0.005792   0.005607
    13  C   -0.003741   0.005219   0.363117   0.364082   0.363453  -0.005723
    14  C   -0.001699  -0.006266  -0.005729  -0.002095   0.005848   0.362714
    15  H   -0.000002   0.000021  -0.000000   0.000000  -0.000004  -0.000000
    16  H   -0.000000  -0.000000  -0.000000  -0.000000   0.000059  -0.000000
    17  H   -0.000000  -0.000000  -0.000000   0.000000   0.000000  -0.000000
    18  H   -0.000003  -0.000013   0.000047   0.000006   0.001436  -0.000000
    19  H    0.000000  -0.000000  -0.000000   0.000000   0.000000   0.000000
    20  H    0.000000   0.000000  -0.000000   0.000000  -0.000000  -0.000000
    21  H   -0.000000  -0.000000   0.000000   0.000000   0.000000  -0.000000
    22  H    0.000000   0.000000  -0.000000   0.000000  -0.000000  -0.000000
    23  H   -0.000000  -0.000013   0.000000  -0.000000  -0.000000  -0.000000
    24  H   -0.025623  -0.029799  -0.000082   0.000153   0.003867  -0.000189
    25  H    0.565629  -0.026067   0.000018   0.002153   0.000149  -0.000064
    26  H   -0.026067   0.522158  -0.000183   0.000002  -0.000049  -0.000002
    27  H    0.000018  -0.000183   0.559630  -0.026753  -0.030467   0.004078
    28  H    0.002153   0.000002  -0.026753   0.561725  -0.026892   0.000141
    29  H    0.000149  -0.000049  -0.030467  -0.026892   0.560359  -0.000077
    30  H   -0.000064  -0.000002   0.004078   0.000141  -0.000077   0.563801
    31  H    0.000210   0.003487  -0.000061   0.000003  -0.000182  -0.029745
    32  H    0.001368   0.000197   0.000119   0.002083   0.000021  -0.026147
              31         32
     1  C   -0.000000   0.000000
     2  C    0.000000   0.000000
     3  C   -0.000000   0.000000
     4  C   -0.000001   0.000000
     5  C    0.000129   0.000013
     6  N    0.000001  -0.000000
     7  N   -0.000001  -0.000000
     8  C    0.002306   0.000230
     9  O    0.009266   0.000159
    10  O   -0.003185   0.002652
    11  C   -0.024018  -0.024487
    12  C   -0.006349  -0.001691
    13  C    0.005213  -0.003476
    14  C    0.365013   0.361416
    15  H    0.000000  -0.000000
    16  H   -0.000000  -0.000000
    17  H   -0.000000  -0.000000
    18  H   -0.000001  -0.000000
    19  H    0.000000  -0.000000
    20  H    0.000000   0.000000
    21  H   -0.000000   0.000000
    22  H    0.000000   0.000000
    23  H   -0.000001  -0.000000
    24  H   -0.000005  -0.000053
    25  H    0.000210   0.001368
    26  H    0.003487   0.000197
    27  H   -0.000061   0.000119
    28  H    0.000003   0.002083
    29  H   -0.000182   0.000021
    30  H   -0.029745  -0.026147
    31  H    0.523155  -0.026219
    32  H   -0.026219   0.563983
 Mulliken charges:
               1
     1  C   -0.447935
     2  C   -0.263709
     3  C   -0.246607
     4  C   -0.302432
     5  C    0.137432
     6  N    0.080479
     7  N   -0.266535
     8  C    0.579474
     9  O   -0.455406
    10  O   -0.459882
    11  C    0.306819
    12  C   -0.474908
    13  C   -0.456155
    14  C   -0.471447
    15  H    0.143305
    16  H    0.143723
    17  H    0.142956
    18  H    0.154612
    19  H    0.132753
    20  H    0.138669
    21  H    0.129549
    22  H    0.158061
    23  H    0.169592
    24  H    0.152386
    25  H    0.149329
    26  H    0.181864
    27  H    0.155489
    28  H    0.150627
    29  H    0.154450
    30  H    0.152632
    31  H    0.180983
    32  H    0.149833
 Sum of Mulliken charges =  -0.00000
 Mulliken charges with hydrogens summed into heavy atoms:
               1
     1  C   -0.017952
     2  C    0.023656
     3  C    0.021611
     4  C    0.025222
     5  C    0.137432
     6  N    0.080479
     7  N   -0.266535
     8  C    0.579474
     9  O   -0.455406
    10  O   -0.459882
    11  C    0.306819
    12  C    0.008671
    13  C    0.004411
    14  C    0.012001
 Electronic spatial extent (au):  <R**2>=           3155.7923
 Charge=              0.0000 electrons
 Dipole moment (field-independent basis, Debye):
    X=              0.6159    Y=             -2.6406    Z=             -0.6597  Tot=              2.7906
 Quadrupole moment (field-independent basis, Debye-Ang):
   XX=            -76.7658   YY=            -92.0383   ZZ=            -90.8864
   XY=              0.4021   XZ=             -3.8258   YZ=              0.3638
 Traceless Quadrupole moment (field-independent basis, Debye-Ang):
   XX=              9.7977   YY=             -5.4748   ZZ=             -4.3229
   XY=              0.4021   XZ=             -3.8258   YZ=              0.3638
 Octapole moment (field-independent basis, Debye-Ang**2):
  XXX=             15.6519  YYY=            -17.8672  ZZZ=             -3.6495  XYY=             11.9322
  XXY=             -1.9717  XXZ=              1.9012  XZZ=              0.1463  YZZ=             -7.9892
  YYZ=              7.1626  XYZ=             -6.6359
 Hexadecapole moment (field-independent basis, Debye-Ang**3):
 XXXX=          -2250.9496 YYYY=          -1465.1847 ZZZZ=           -547.1086 XXXY=            -23.4621
 XXXZ=             -5.1783 YYYX=             33.5628 YYYZ=             47.1699 ZZZX=             -4.1393
 ZZZY=             -2.6437 XXYY=           -617.0754 XXZZ=           -479.3658 YYZZ=           -339.0622
 XXYZ=              6.9318 YYXZ=            -15.8701 ZZXY=              2.6301
 N-N= 9.581773054794D+02 E-N=-3.431684161945D+03  KE= 6.458657881260D+02
 Calling FoFJK, ICntrl=      2127 FMM=F ISym2X=0 I1Cent= 0 IOpClX= 0 NMat=1 NMatS=1 NMatT=0.
 ***** Axes restored to original set *****
 -------------------------------------------------------------------
 Center     Atomic                   Forces (Hartrees/Bohr)
 Number     Number              X              Y              Z
 -------------------------------------------------------------------
      1        6          -0.001970614   -0.003412090    0.001018359
      2        6           0.001447172    0.001200941    0.003058180
      3        6           0.006071343   -0.003261153    0.005908987
      4        6           0.007071104    0.016057925   -0.001208636
      5        6          -0.016745202    0.022591453    0.007530257
      6        7           0.023140157   -0.034467125   -0.011331574
      7        7          -0.007857952    0.018020963    0.006825000
      8        6           0.006573430    0.011660611   -0.005912343
      9        8          -0.007281563   -0.015279765    0.006413688
     10        8          -0.008504682   -0.006960288   -0.004149070
     11        6          -0.018630402   -0.021657024    0.007338637
     12        6           0.005465060    0.002045637   -0.010360824
     13        6           0.007691843    0.006824448    0.005476876
     14        6          -0.000728164    0.008448388   -0.008054453
     15        1           0.000234572   -0.001121523   -0.002129219
     16        1           0.000411391   -0.001749480   -0.001129970
     17        1           0.001058945   -0.000643337   -0.001470984
     18        1          -0.001880000    0.001386649   -0.000579007
     19        1          -0.000216787    0.001190353    0.001090896
     20        1          -0.000261655    0.001987863   -0.002169196
     21        1           0.001819311    0.000108805   -0.000275144
     22        1           0.004401030   -0.001487054   -0.002592462
     23        1          -0.002562085   -0.000011531    0.000364380
     24        1          -0.000571455   -0.000641499    0.003198904
     25        1          -0.000219877    0.001799853    0.003063116
     26        1          -0.001286271    0.001928992    0.001290916
     27        1          -0.001772559    0.000138041   -0.001325763
     28        1           0.000346144    0.001162409   -0.003018777
     29        1          -0.000101548   -0.001500535   -0.001707853
     30        1           0.000346973   -0.001731940    0.002778453
     31        1           0.001967305   -0.001732286    0.000095681
     32        1           0.002545039   -0.000896701    0.001962945
 -------------------------------------------------------------------
 Cartesian Forces:  Max     0.034467125 RMS     0.007683233

 GradGradGradGradGradGradGradGradGradGradGradGradGradGradGradGradGradGrad
 Berny optimization.
 FormGI is forming the generalized inverse of G from B-inverse, IUseBI=4.
 Internal  Forces:  Max     0.027644531 RMS     0.004775748
 Search for a local minimum.
 Step number   1 out of a maximum of  167
 All quantities printed in internal units (Hartrees-Bohrs-Radians)
 Mixed Optimization -- RFO/linear search
 Second derivative matrix not updated -- first step.
 ITU=  0
     Eigenvalues ---    0.00295   0.00336   0.00336   0.00352   0.00391
     Eigenvalues ---    0.00486   0.00907   0.00959   0.01035   0.01037
     Eigenvalues ---    0.01604   0.02493   0.03303   0.03460   0.04126
     Eigenvalues ---    0.04546   0.04728   0.04728   0.04787   0.04862
     Eigenvalues ---    0.05335   0.05393   0.05399   0.05457   0.05486
     Eigenvalues ---    0.05494   0.05525   0.05532   0.05557   0.05718
     Eigenvalues ---    0.06783   0.08536   0.08772   0.09535   0.12353
     Eigenvalues ---    0.12517   0.12909   0.15996   0.16000   0.16000
     Eigenvalues ---    0.16000   0.16000   0.16000   0.16000   0.16000
     Eigenvalues ---    0.16000   0.16000   0.16000   0.16000   0.16000
     Eigenvalues ---    0.16140   0.21922   0.21941   0.21962   0.24979
     Eigenvalues ---    0.24998   0.25000   0.25000   0.25000   0.28911
     Eigenvalues ---    0.29191   0.29193   0.29308   0.29577   0.30253
     Eigenvalues ---    0.33524   0.33992   0.33995   0.34005   0.34029
     Eigenvalues ---    0.34087   0.34094   0.34137   0.34152   0.34203
     Eigenvalues ---    0.34208   0.34239   0.34263   0.34302   0.34310
     Eigenvalues ---    0.34317   0.34324   0.34364   0.34380   0.34624
     Eigenvalues ---    0.38293   0.57325   0.64008   0.98707   1.41470
 RFO step:  Lambda=-1.49432014D-02 EMin= 2.94829407D-03
 Linear search not attempted -- first point.
 Iteration  1 RMS(Cart)=  0.13400048 RMS(Int)=  0.00422080
 Iteration  2 RMS(Cart)=  0.00836067 RMS(Int)=  0.00051852
 Iteration  3 RMS(Cart)=  0.00002954 RMS(Int)=  0.00051837
 Iteration  4 RMS(Cart)=  0.00000003 RMS(Int)=  0.00051837
 Variable       Old X    -DE/DX   Delta X   Delta X   Delta X     New X
                                 (Linear)    (Quad)   (Total)
    R1        2.87461   0.00749   0.00000   0.02358   0.02358   2.89820
    R2        2.06693   0.00169   0.00000   0.00471   0.00471   2.07164
    R3        2.06888   0.00075   0.00000   0.00211   0.00211   2.07099
    R4        2.06823   0.00143   0.00000   0.00400   0.00400   2.07223
    R5        2.89366   0.00277   0.00000   0.00899   0.00899   2.90265
    R6        2.06799   0.00151   0.00000   0.00421   0.00421   2.07220
    R7        2.07281   0.00082   0.00000   0.00230   0.00230   2.07511
    R8        2.88815   0.00692   0.00000   0.02227   0.02227   2.91042
    R9        2.07344   0.00018   0.00000   0.00051   0.00051   2.07395
   R10        2.07321   0.00183   0.00000   0.00517   0.00517   2.07838
   R11        2.81441   0.01361   0.00000   0.03887   0.03887   2.85327
   R12        2.07338   0.00153   0.00000   0.00432   0.00432   2.07770
   R13        2.06720  -0.00048   0.00000  -0.00135  -0.00135   2.06585
   R14        2.47903  -0.02129   0.00000  -0.03250  -0.03250   2.44653
   R15        2.79590   0.02176   0.00000   0.06025   0.06025   2.85615
   R16        2.15519   0.02079   0.00000   0.01454   0.01454   2.16973
   R17        2.29161  -0.00130   0.00000  -0.00130  -0.00130   2.29031
   R18        2.53122   0.00608   0.00000   0.01034   0.01034   2.54156
   R19        2.73942   0.00763   0.00000   0.01918   0.01918   2.75860
   R20        2.89602  -0.00138   0.00000  -0.00451  -0.00451   2.89151
   R21        2.90189  -0.00278   0.00000  -0.00913  -0.00913   2.89276
   R22        2.89606  -0.00146   0.00000  -0.00477  -0.00477   2.89129
   R23        2.07074   0.00033   0.00000   0.00094   0.00094   2.07168
   R24        2.06990  -0.00090   0.00000  -0.00253  -0.00253   2.06737
   R25        2.06787  -0.00078   0.00000  -0.00218  -0.00218   2.06569
   R26        2.07172  -0.00027   0.00000  -0.00076  -0.00076   2.07096
   R27        2.06928  -0.00148   0.00000  -0.00415  -0.00415   2.06513
   R28        2.07183  -0.00012   0.00000  -0.00033  -0.00033   2.07150
   R29        2.07099   0.00001   0.00000   0.00002   0.00002   2.07101
   R30        2.06810  -0.00063   0.00000  -0.00175  -0.00175   2.06635
   R31        2.06981  -0.00092   0.00000  -0.00258  -0.00258   2.06723
    A1        1.94638   0.00146   0.00000   0.00742   0.00737   1.95375
    A2        1.92018   0.00248   0.00000   0.01629   0.01621   1.93639
    A3        1.93876   0.00068   0.00000   0.00266   0.00264   1.94140
    A4        1.87634  -0.00169   0.00000  -0.00736  -0.00746   1.86888
    A5        1.89453  -0.00175   0.00000  -0.01385  -0.01384   1.88069
    A6        1.88551  -0.00139   0.00000  -0.00622  -0.00627   1.87924
    A7        1.98363   0.00218   0.00000   0.00954   0.00945   1.99308
    A8        1.91393  -0.00036   0.00000  -0.00489  -0.00488   1.90906
    A9        1.88949   0.00069   0.00000   0.01665   0.01656   1.90605
   A10        1.92894  -0.00212   0.00000  -0.02197  -0.02199   1.90695
   A11        1.88758  -0.00088   0.00000   0.00038   0.00016   1.88774
   A12        1.85520   0.00043   0.00000   0.00076   0.00073   1.85594
   A13        2.01222  -0.00359   0.00000  -0.01590  -0.01592   1.99630
   A14        1.88894   0.00238   0.00000   0.01108   0.01083   1.89977
   A15        1.89524   0.00160   0.00000   0.01455   0.01454   1.90978
   A16        1.91123  -0.00078   0.00000  -0.01572  -0.01571   1.89553
   A17        1.89291   0.00127   0.00000   0.00779   0.00790   1.90081
   A18        1.85718  -0.00067   0.00000  -0.00056  -0.00065   1.85653
   A19        1.96532   0.00435   0.00000   0.02090   0.01953   1.98485
   A20        1.89327  -0.00162   0.00000   0.01340   0.01149   1.90476
   A21        1.95157  -0.00077   0.00000  -0.02334  -0.02370   1.92787
   A22        1.87092   0.00394   0.00000   0.06067   0.05971   1.93063
   A23        1.91683  -0.00560   0.00000  -0.05669  -0.05649   1.86033
   A24        1.86098  -0.00025   0.00000  -0.01156  -0.01055   1.85043
   A25        2.15338  -0.00942   0.00000  -0.03512  -0.03531   2.11807
   A26        2.12747   0.00042   0.00000   0.00202   0.00184   2.12930
   A27        2.00135   0.00903   0.00000   0.03458   0.03440   2.03575
   A28        2.11178   0.01272   0.00000   0.04771   0.04669   2.15846
   A29        1.89176   0.01490   0.00000   0.05593   0.05507   1.94684
   A30        2.27955  -0.02764   0.00000  -0.10467  -0.10535   2.17420
   A31        2.09840   0.00263   0.00000   0.00992   0.00992   2.10832
   A32        1.94266  -0.00079   0.00000  -0.02163  -0.02144   1.92122
   A33        1.82891  -0.00272   0.00000  -0.02622  -0.02573   1.80318
   A34        1.93764  -0.00043   0.00000  -0.01796  -0.01777   1.91986
   A35        1.89773   0.00254   0.00000   0.03025   0.02961   1.92734
   A36        1.95265  -0.00107   0.00000   0.00482   0.00357   1.95622
   A37        1.89924   0.00256   0.00000   0.03154   0.03095   1.93019
   A38        1.93360  -0.00128   0.00000  -0.00761  -0.00780   1.92580
   A39        1.94297  -0.00395   0.00000  -0.02751  -0.02775   1.91522
   A40        1.95254  -0.00183   0.00000  -0.00524  -0.00526   1.94728
   A41        1.89506   0.00133   0.00000  -0.00222  -0.00261   1.89245
   A42        1.86196   0.00302   0.00000   0.02669   0.02671   1.88867
   A43        1.87441   0.00320   0.00000   0.01887   0.01879   1.89320
   A44        1.93425  -0.00050   0.00000   0.00013   0.00003   1.93427
   A45        1.95177  -0.00419   0.00000  -0.02980  -0.02997   1.92180
   A46        1.93359  -0.00047   0.00000   0.00010  -0.00001   1.93357
   A47        1.89233   0.00171   0.00000   0.00452   0.00436   1.89669
   A48        1.85611   0.00220   0.00000   0.02411   0.02407   1.88018
   A49        1.89255   0.00165   0.00000   0.00378   0.00361   1.89617
   A50        1.93333  -0.00126   0.00000  -0.00662  -0.00679   1.92654
   A51        1.95158  -0.00170   0.00000  -0.00488  -0.00492   1.94665
   A52        1.94377  -0.00388   0.00000  -0.02761  -0.02785   1.91592
   A53        1.86063   0.00308   0.00000   0.02795   0.02797   1.88860
   A54        1.89432   0.00139   0.00000  -0.00120  -0.00155   1.89277
   A55        1.87690   0.00286   0.00000   0.01533   0.01522   1.89213
   A56        3.15074  -0.00076   0.00000  -0.01226  -0.01226   3.13848
   A57        3.13604   0.00169   0.00000   0.02718   0.02718   3.16323
    D1       -1.16895   0.00119   0.00000   0.02284   0.02293  -1.14602
    D2        0.99970  -0.00028   0.00000  -0.00284  -0.00280   0.99689
    D3        3.01680   0.00043   0.00000   0.00466   0.00463   3.02143
    D4        3.03387   0.00075   0.00000   0.01664   0.01669   3.05056
    D5       -1.08067  -0.00071   0.00000  -0.00903  -0.00904  -1.08971
    D6        0.93643  -0.00001   0.00000  -0.00154  -0.00161   0.93482
    D7        0.94692   0.00044   0.00000   0.01212   0.01216   0.95908
    D8        3.11557  -0.00103   0.00000  -0.01356  -0.01357   3.10200
    D9       -1.15052  -0.00032   0.00000  -0.00606  -0.00613  -1.15665
   D10        1.10408  -0.00021   0.00000  -0.01399  -0.01397   1.09011
   D11       -3.03260  -0.00190   0.00000  -0.03707  -0.03714  -3.06974
   D12       -1.02335  -0.00061   0.00000  -0.02432  -0.02425  -1.04760
   D13       -1.05643   0.00028   0.00000   0.00246   0.00249  -1.05394
   D14        1.09007  -0.00141   0.00000  -0.02062  -0.02068   1.06939
   D15        3.09932  -0.00011   0.00000  -0.00787  -0.00780   3.09152
   D16       -3.08059   0.00143   0.00000   0.01335   0.01335  -3.06723
   D17       -0.93408  -0.00026   0.00000  -0.00973  -0.00982  -0.94390
   D18        1.07517   0.00104   0.00000   0.00303   0.00306   1.07823
   D19        1.24387  -0.00483   0.00000  -0.11339  -0.11340   1.13047
   D20       -2.97155   0.00163   0.00000  -0.01665  -0.01647  -2.98803
   D21       -0.92422  -0.00013   0.00000  -0.03607  -0.03602  -0.96024
   D22       -0.89075  -0.00477   0.00000  -0.10428  -0.10444  -0.99519
   D23        1.17702   0.00169   0.00000  -0.00754  -0.00752   1.16950
   D24       -3.05883  -0.00008   0.00000  -0.02695  -0.02707  -3.08589
   D25       -2.91063  -0.00425   0.00000  -0.09942  -0.09949  -3.01012
   D26       -0.84287   0.00221   0.00000  -0.00268  -0.00257  -0.84543
   D27        1.20447   0.00045   0.00000  -0.02210  -0.02212   1.18235
   D28        1.28902   0.00166   0.00000   0.04313   0.04391   1.33293
   D29       -1.90305   0.00278   0.00000   0.08177   0.08201  -1.82104
   D30       -0.79180  -0.00145   0.00000  -0.02511  -0.02589  -0.81770
   D31        2.29932  -0.00034   0.00000   0.01354   0.01220   2.31152
   D32       -2.80705  -0.00043   0.00000  -0.01546  -0.01464  -2.82169
   D33        0.28407   0.00069   0.00000   0.02319   0.02346   0.30753
   D34       -1.37417   0.00334   0.00000   0.11487   0.11582  -1.25836
   D35        1.75402   0.00095   0.00000   0.04249   0.04069   1.79470
   D36        1.72104   0.00388   0.00000   0.14857   0.15037   1.87141
   D37       -1.43395   0.00150   0.00000   0.07619   0.07524  -1.35871
   D38        3.13446   0.00203   0.00000   0.06305   0.06026  -3.08847
   D39       -0.02226  -0.00019   0.00000  -0.01689  -0.01409  -0.03636
   D40        1.08286  -0.00082   0.00000   0.00078   0.00067   1.08353
   D41        3.13106   0.00023   0.00000   0.01070   0.01074  -3.14139
   D42       -1.10464   0.00149   0.00000   0.02412   0.02419  -1.08045
   D43        0.87020   0.00127   0.00000   0.02931   0.02912   0.89932
   D44        2.98088  -0.00058   0.00000   0.00268   0.00269   2.98356
   D45       -1.20497  -0.00048   0.00000   0.00417   0.00412  -1.20085
   D46       -1.13576   0.00350   0.00000   0.05522   0.05517  -1.08059
   D47        0.97491   0.00165   0.00000   0.02860   0.02874   1.00365
   D48        3.07225   0.00175   0.00000   0.03008   0.03017   3.10243
   D49        3.04930  -0.00070   0.00000  -0.00714  -0.00723   3.04207
   D50       -1.12321  -0.00255   0.00000  -0.03376  -0.03366  -1.15687
   D51        0.97413  -0.00245   0.00000  -0.03228  -0.03223   0.94190
   D52        1.02426   0.00118   0.00000   0.01574   0.01571   1.03996
   D53        3.13789   0.00015   0.00000   0.00117   0.00116   3.13905
   D54       -1.03184  -0.00094   0.00000  -0.01434  -0.01431  -1.04615
   D55        3.10296   0.00005   0.00000  -0.00862  -0.00902   3.09395
   D56       -1.06660  -0.00098   0.00000  -0.02319  -0.02356  -1.09015
   D57        1.04686  -0.00207   0.00000  -0.03870  -0.03903   1.00783
   D58       -1.04933   0.00188   0.00000   0.03523   0.03557  -1.01376
   D59        1.06430   0.00085   0.00000   0.02066   0.02103   1.08533
   D60       -3.10543  -0.00024   0.00000   0.00515   0.00556  -3.09987
   D61       -0.88404  -0.00140   0.00000  -0.02962  -0.02947  -0.91351
   D62        1.18865   0.00053   0.00000  -0.00201  -0.00199   1.18667
   D63       -2.99412   0.00033   0.00000  -0.00490  -0.00491  -2.99903
   D64       -3.06592   0.00077   0.00000   0.00880   0.00890  -3.05702
   D65       -0.99323   0.00270   0.00000   0.03642   0.03638  -0.95685
   D66        1.10718   0.00249   0.00000   0.03352   0.03346   1.14064
   D67        1.12003  -0.00342   0.00000  -0.05284  -0.05280   1.06723
   D68       -3.09047  -0.00149   0.00000  -0.02523  -0.02531  -3.11578
   D69       -0.99006  -0.00169   0.00000  -0.02812  -0.02824  -1.01830
         Item               Value     Threshold  Converged?
 Maximum Force            0.027645     0.000450     NO 
 RMS     Force            0.004776     0.000300     NO 
 Maximum Displacement     0.532342     0.001800     NO 
 RMS     Displacement     0.136264     0.001200     NO 
 Predicted change in Energy=-8.745041D-03
 GradGradGradGradGradGradGradGradGradGradGradGradGradGradGradGradGradGrad

                          Input orientation:                          
 ---------------------------------------------------------------------
 Center     Atomic      Atomic             Coordinates (Angstroms)
 Number     Number       Type             X           Y           Z
 ---------------------------------------------------------------------
      1          6           0        0.718382   -0.046580   -0.147770
      2          6           0        0.501798    1.215518    0.696215
      3          6           0        0.820442    2.526361   -0.038296
      4          6           0       -0.063807    2.796017   -1.270116
      5          6           0       -1.522199    3.001795   -0.937689
      6          7           0       -1.946944    4.114397   -0.429931
      7          7           0       -2.333006    5.106493    0.000187
      8          6           0       -2.560285    1.933268   -1.192623
      9          8           0       -2.951888    1.626969   -2.297936
     10          8           0       -2.905864    1.299610   -0.057762
     11          6           0       -3.847118    0.184059   -0.081481
     12          6           0       -3.278556   -0.965291   -0.916348
     13          6           0       -3.947736   -0.223669    1.390568
     14          6           0       -5.205636    0.656634   -0.603024
     15          1           0        0.021407   -0.099197   -0.992316
     16          1           0        0.565277   -0.950485    0.452692
     17          1           0        1.737039   -0.084054   -0.552014
     18          1           0       -0.535473    1.242538    1.050869
     19          1           0        1.133555    1.163349    1.592867
     20          1           0        0.707606    3.362526    0.663543
     21          1           0        1.875076    2.523702   -0.350329
     22          1           0        0.334621    3.662612   -1.817019
     23          1           0       -0.017986    1.953484   -1.965191
     24          1           0       -2.264263   -1.213394   -0.582441
     25          1           0       -3.907701   -1.852709   -0.800124
     26          1           0       -3.235415   -0.707916   -1.977855
     27          1           0       -4.308821    0.610906    2.002217
     28          1           0       -4.638405   -1.063262    1.501562
     29          1           0       -2.967363   -0.522660    1.779293
     30          1           0       -5.546512    1.533267   -0.040541
     31          1           0       -5.157214    0.927351   -1.661341
     32          1           0       -5.945452   -0.140319   -0.483764
 ---------------------------------------------------------------------
                    Distance matrix (angstroms):
                    1          2          3          4          5
     1  C    0.000000
     2  C    1.533659   0.000000
     3  C    2.577290   1.536017   0.000000
     4  C    3.154653   2.585410   1.540127   0.000000
     5  C    3.864811   3.155470   2.554000   1.509888   0.000000
     6  N    4.949475   3.958287   3.214601   2.447497   1.294647
     7  N    5.990578   4.864181   4.074653   3.478683   2.442699
     8  C    3.970034   3.668681   3.621263   2.642488   1.511410
     9  O    4.571090   4.589355   4.488358   3.280869   2.405084
    10  O    3.867233   3.491091   3.923093   3.433123   2.363522
    11  C    4.571803   4.536716   5.222486   4.748539   3.752063
    12  C    4.172560   4.652673   5.455675   4.960565   4.338549
    13  C    4.916351   4.727763   5.686812   5.593090   4.659144
    14  C    5.982956   5.880066   6.334699   5.608956   4.379439
    15  H    1.096267   2.193260   2.905540   2.909760   3.464369
    16  H    1.095920   2.180574   3.520601   4.171342   4.680943
    17  H    1.096576   2.184670   2.813951   3.471819   4.504869
    18  H    2.161183   1.096559   2.161709   2.832444   2.832486
    19  H    2.160119   1.098100   2.148612   3.506559   4.103246
    20  H    3.504332   2.157097   1.097489   2.157555   2.768773
    21  H    2.825831   2.166216   1.099830   2.163199   3.480667
    22  H    4.085556   3.511775   2.165859   1.099470   2.158166
    23  H    2.800984   2.810311   2.178089   1.093202   2.101754
    24  H    3.232115   3.896879   4.878244   4.624963   4.294726
    25  H    5.008824   5.576445   6.489374   6.050378   5.410707
    26  H    4.406709   4.981667   5.538268   4.778864   4.216516
    27  H    5.507042   5.021280   5.843116   5.788180   4.703686
    28  H    5.696412   5.680063   6.712344   6.595695   5.673215
    29  H    4.186280   4.028573   5.191110   5.361264   4.678918
    30  H    6.461913   6.101298   6.443939   5.759033   4.376819
    31  H    6.145085   6.137224   6.397146   5.439464   4.247390
    32  H    6.672958   6.693107   7.286079   6.620738   5.444639
                    6          7          8          9         10
     6  N    0.000000
     7  N    1.148173   0.000000
     8  C    2.390650   3.397618   0.000000
     9  O    3.269044   4.215623   1.211978   0.000000
    10  O    2.996842   3.850180   1.344938   2.264435   0.000000
    11  C    4.379456   5.150686   2.439326   2.792150   1.459786
    12  C    5.273804   6.212943   2.998981   2.955555   2.450682
    13  C    5.112357   5.740308   3.640092   4.245190   2.345961
    14  C    4.754488   5.330771   2.995881   2.982223   2.449424
    15  H    4.684555   5.798925   3.291834   3.677605   3.376236
    16  H    5.722176   6.729917   4.559849   5.155548   4.168010
    17  H    5.586915   6.619061   4.790299   5.287900   4.869842
    18  H    3.525988   4.389215   3.100036   4.147450   2.617456
[...]
   248    C   12  px     Val( 2p)     0.60454       0.02315
   249    C   12  px     Ryd( 3p)     0.00080       0.72862
   250    C   12  px     Ryd( 4p)     0.00025       0.87006
   251    C   12  px     Ryd( 5p)     0.00004       2.89401
   252    C   12  py     Val( 2p)     0.56505       0.02431
   253    C   12  py     Ryd( 3p)     0.00116       1.05244
   254    C   12  py     Ryd( 4p)     0.00038       2.01556
   255    C   12  py     Ryd( 5p)     0.00006       2.59294
   256    C   12  pz     Val( 2p)     0.58652       0.02401
   257    C   12  pz     Ryd( 3p)     0.00116       0.86248
   258    C   12  pz     Ryd( 4p)     0.00027       1.42885
   259    C   12  pz     Ryd( 5p)     0.00004       2.71078
   260    C   12  dxy    Ryd( 3d)     0.00046       2.26240
   261    C   12  dxz    Ryd( 3d)     0.00029       2.16161
   262    C   12  dyz    Ryd( 3d)     0.00035       2.38241
   263    C   12  dx2y2  Ryd( 3d)     0.00020       2.18756
   264    C   12  dz2    Ryd( 3d)     0.00039       2.17932
 
   265    C   13  S      Cor( 1S)     0.99960      -9.90329
   266    C   13  S      Val( 2S)     0.53795      -0.13736
   267    C   13  S      Ryd( 4S)     0.00033       2.17407
   268    C   13  S      Ryd( 3S)     0.00045       1.28791
   269    C   13  S      Ryd( 5S)     0.00002      16.77930
   270    C   13  px     Val( 2p)     0.57401       0.02670
   271    C   13  px     Ryd( 3p)     0.00112       0.92791
   272    C   13  px     Ryd( 4p)     0.00036       1.97314
   273    C   13  px     Ryd( 5p)     0.00002       2.98772
   274    C   13  py     Val( 2p)     0.57810       0.02530
   275    C   13  py     Ryd( 3p)     0.00127       0.90576
   276    C   13  py     Ryd( 4p)     0.00031       1.80012
   277    C   13  py     Ryd( 5p)     0.00003       3.13259
   278    C   13  pz     Val( 2p)     0.59163       0.02333
   279    C   13  pz     Ryd( 3p)     0.00141       0.80631
   280    C   13  pz     Ryd( 4p)     0.00020       1.38866
   281    C   13  pz     Ryd( 5p)     0.00003       3.05674
   282    C   13  dxy    Ryd( 3d)     0.00036       2.31984
   283    C   13  dxz    Ryd( 3d)     0.00023       2.19890
   284    C   13  dyz    Ryd( 3d)     0.00040       2.30965
   285    C   13  dx2y2  Ryd( 3d)     0.00030       2.15165
   286    C   13  dz2    Ryd( 3d)     0.00039       2.18976
 
   287    C   14  S      Cor( 1S)     0.99960      -9.90124
   288    C   14  S      Val( 2S)     0.53949      -0.13324
   289    C   14  S      Ryd( 4S)     0.00026       3.96941
   290    C   14  S      Ryd( 3S)     0.00044       1.37587
   291    C   14  S      Ryd( 5S)     0.00002      17.26444
   292    C   14  px     Val( 2p)     0.59505       0.02395
   293    C   14  px     Ryd( 3p)     0.00081       0.80993
   294    C   14  px     Ryd( 4p)     0.00027       1.16969
   295    C   14  px     Ryd( 5p)     0.00006       2.82476
   296    C   14  py     Val( 2p)     0.60725       0.02331
   297    C   14  py     Ryd( 3p)     0.00133       0.72032
   298    C   14  py     Ryd( 4p)     0.00020       0.88202
   299    C   14  py     Ryd( 5p)     0.00002       2.97720
   300    C   14  pz     Val( 2p)     0.55380       0.02485
   301    C   14  pz     Ryd( 3p)     0.00100       1.12144
   302    C   14  pz     Ryd( 4p)     0.00042       2.58517
   303    C   14  pz     Ryd( 5p)     0.00005       2.71001
   304    C   14  dxy    Ryd( 3d)     0.00037       2.22158
   305    C   14  dxz    Ryd( 3d)     0.00024       2.20065
   306    C   14  dyz    Ryd( 3d)     0.00050       2.30015
   307    C   14  dx2y2  Ryd( 3d)     0.00029       2.16171
   308    C   14  dz2    Ryd( 3d)     0.00029       2.28278
 
   309    H   15  S      Val( 1S)     0.38444       0.18342
   310    H   15  S      Ryd( 2S)     0.00026       0.75653
   311    H   15  S      Ryd( 4S)     0.00051       1.21276
   312    H   15  S      Ryd( 3S)     0.00011       1.20871
   313    H   15  px     Ryd( 2p)     0.00014       2.49543
   314    H   15  py     Ryd( 2p)     0.00007       1.90748
   315    H   15  pz     Ryd( 2p)     0.00009       2.23920
 
   316    H   16  S      Val( 1S)     0.40634       0.14061
   317    H   16  S      Ryd( 2S)     0.00014       0.40108
   318    H   16  S      Ryd( 3S)     0.00045       0.55452
   319    H   16  S      Ryd( 4S)     0.00013       2.14292
   320    H   16  px     Ryd( 2p)     0.00008       1.91193
   321    H   16  py     Ryd( 2p)     0.00012       2.32094
   322    H   16  pz     Ryd( 2p)     0.00011       2.29415
 
   323    H   17  S      Val( 1S)     0.41130       0.13400
   324    H   17  S      Ryd( 3S)     0.00055       0.69318
   325    H   17  S      Ryd( 2S)     0.00020       0.39737
   326    H   17  S      Ryd( 4S)     0.00015       2.06023
   327    H   17  px     Ryd( 2p)     0.00012       2.50531
   328    H   17  py     Ryd( 2p)     0.00009       1.92365
   329    H   17  pz     Ryd( 2p)     0.00009       2.10991
 
   330    H   18  S      Val( 1S)     0.39822       0.16167
   331    H   18  S      Ryd( 2S)     0.00058       0.38662
   332    H   18  S      Ryd( 3S)     0.00059       1.38613
   333    H   18  S      Ryd( 4S)     0.00008       1.58274
   334    H   18  px     Ryd( 2p)     0.00013       2.55697
   335    H   18  py     Ryd( 2p)     0.00007       1.93425
   336    H   18  pz     Ryd( 2p)     0.00008       2.20164
 
   337    H   19  S      Val( 1S)     0.41210       0.14102
   338    H   19  S      Ryd( 2S)     0.00066       0.74666
   339    H   19  S      Ryd( 4S)     0.00005       1.66678
   340    H   19  S      Ryd( 3S)     0.00002       1.05429
   341    H   19  px     Ryd( 2p)     0.00011       2.37299
   342    H   19  py     Ryd( 2p)     0.00009       1.89221
   343    H   19  pz     Ryd( 2p)     0.00015       2.33870
 
   344    H   20  S      Val( 1S)     0.40299       0.15638
   345    H   20  S      Ryd( 3S)     0.00057       0.92087
   346    H   20  S      Ryd( 2S)     0.00002       0.38882
   347    H   20  S      Ryd( 4S)     0.00007       2.06669
   348    H   20  px     Ryd( 2p)     0.00007       1.97998
   349    H   20  py     Ryd( 2p)     0.00015       2.55742
   350    H   20  pz     Ryd( 2p)     0.00009       2.14405
 
   351    H   21  S      Val( 1S)     0.41284       0.14188
   352    H   21  S      Ryd( 3S)     0.00069       0.81841
   353    H   21  S      Ryd( 4S)     0.00010       2.21321
   354    H   21  S      Ryd( 2S)     0.00002       0.37473
   355    H   21  px     Ryd( 2p)     0.00016       2.60369
   356    H   21  py     Ryd( 2p)     0.00007       2.01545
   357    H   21  pz     Ryd( 2p)     0.00010       2.06590
 
   358    H   22  S      Val( 1S)     0.40649       0.15898
   359    H   22  S      Ryd( 3S)     0.00052       0.98592
   360    H   22  S      Ryd( 4S)     0.00012       1.87224
   361    H   22  S      Ryd( 2S)     0.00002       0.68490
   362    H   22  px     Ryd( 2p)     0.00008       2.13073
   363    H   22  py     Ryd( 2p)     0.00011       2.41017
   364    H   22  pz     Ryd( 2p)     0.00012       2.30084
 
   365    H   23  S      Val( 1S)     0.38941       0.17617
   366    H   23  S      Ryd( 2S)     0.00075       0.86044
   367    H   23  S      Ryd( 3S)     0.00035       0.99317
   368    H   23  S      Ryd( 4S)     0.00005       1.44992
   369    H   23  px     Ryd( 2p)     0.00008       2.00038
   370    H   23  py     Ryd( 2p)     0.00012       2.57110
   371    H   23  pz     Ryd( 2p)     0.00009       2.31540
 
   372    H   24  S      Val( 1S)     0.39813       0.14866
   373    H   24  S      Ryd( 2S)     0.00026       0.53423
   374    H   24  S      Ryd( 4S)     0.00035       1.62075
   375    H   24  S      Ryd( 3S)     0.00002       1.08924
   376    H   24  px     Ryd( 2p)     0.00008       2.08013
   377    H   24  py     Ryd( 2p)     0.00007       1.95090
   378    H   24  pz     Ryd( 2p)     0.00011       2.66919
 
   379    H   25  S      Val( 1S)     0.40125       0.13921
   380    H   25  S      Ryd( 2S)     0.00028       0.38078
   381    H   25  S      Ryd( 4S)     0.00029       1.45716
   382    H   25  S      Ryd( 3S)     0.00002       1.24813
   383    H   25  px     Ryd( 2p)     0.00012       2.56690
   384    H   25  py     Ryd( 2p)     0.00008       2.12443
   385    H   25  pz     Ryd( 2p)     0.00007       1.94779
 
   386    H   26  S      Val( 1S)     0.38415       0.17488
   387    H   26  S      Ryd( 2S)     0.00020       0.63716
   388    H   26  S      Ryd( 4S)     0.00045       1.68219
   389    H   26  S      Ryd( 3S)     0.00003       0.95406
   390    H   26  px     Ryd( 2p)     0.00010       2.26900
   391    H   26  py     Ryd( 2p)     0.00008       2.34636
   392    H   26  pz     Ryd( 2p)     0.00010       2.11162
 
   393    H   27  S      Val( 1S)     0.39469       0.15385
   394    H   27  S      Ryd( 2S)     0.00044       0.43078
   395    H   27  S      Ryd( 4S)     0.00035       1.49701
   396    H   27  S      Ryd( 3S)     0.00003       1.17145
   397    H   27  px     Ryd( 2p)     0.00007       1.98375
   398    H   27  py     Ryd( 2p)     0.00012       2.60028
   399    H   27  pz     Ryd( 2p)     0.00007       2.13477
 
   400    H   28  S      Val( 1S)     0.40102       0.13817
   401    H   28  S      Ryd( 2S)     0.00062       0.34861
   402    H   28  S      Ryd( 4S)     0.00026       1.45624
   403    H   28  S      Ryd( 3S)     0.00002       1.17449
   404    H   28  px     Ryd( 2p)     0.00013       2.67908
   405    H   28  py     Ryd( 2p)     0.00007       2.02848
   406    H   28  pz     Ryd( 2p)     0.00007       1.93567
 
   407    H   29  S      Val( 1S)     0.39453       0.15416
   408    H   29  S      Ryd( 2S)     0.00046       0.43445
   409    H   29  S      Ryd( 4S)     0.00035       1.49706
   410    H   29  S      Ryd( 3S)     0.00003       1.16746
   411    H   29  px     Ryd( 2p)     0.00008       2.03625
   412    H   29  py     Ryd( 2p)     0.00006       1.98086
   413    H   29  pz     Ryd( 2p)     0.00011       2.69785
 
   414    H   30  S      Val( 1S)     0.39816       0.14874
   415    H   30  S      Ryd( 2S)     0.00017       0.49551
   416    H   30  S      Ryd( 4S)     0.00035       1.60639
   417    H   30  S      Ryd( 3S)     0.00002       1.10310
   418    H   30  px     Ryd( 2p)     0.00007       1.95453
   419    H   30  py     Ryd( 2p)     0.00012       2.53022
   420    H   30  pz     Ryd( 2p)     0.00008       2.21396
 
   421    H   31  S      Val( 1S)     0.38391       0.17524
   422    H   31  S      Ryd( 2S)     0.00016       0.60126
   423    H   31  S      Ryd( 4S)     0.00044       1.64169
   424    H   31  S      Ryd( 3S)     0.00003       0.95895
   425    H   31  px     Ryd( 2p)     0.00014       2.23333
   426    H   31  py     Ryd( 2p)     0.00008       2.29880
   427    H   31  pz     Ryd( 2p)     0.00006       2.19286
 
   428    H   32  S      Val( 1S)     0.40148       0.13901
   429    H   32  S      Ryd( 2S)     0.00029       0.36169
   430    H   32  S      Ryd( 4S)     0.00029       1.47175
   431    H   32  S      Ryd( 3S)     0.00002       1.19724
   432    H   32  px     Ryd( 2p)     0.00012       2.65689
   433    H   32  py     Ryd( 2p)     0.00008       2.09781
   434    H   32  pz     Ryd( 2p)     0.00007       1.88294

 WARNING:  Population inversion found on atom  C    1
           Population inversion found on atom  C    2
           Population inversion found on atom  C    3
           Population inversion found on atom  C    5
           Population inversion found on atom  N    6
           Population inversion found on atom  N    7
           Population inversion found on atom  C    8
           Population inversion found on atom  O    9
           Population inversion found on atom  O   10
           Population inversion found on atom  C   11
           Population inversion found on atom  H   15
           Population inversion found on atom  H   16
           Population inversion found on atom  H   17
           Population inversion found on atom  H   18
           Population inversion found on atom  H   19
           Population inversion found on atom  H   20
           Population inversion found on atom  H   21
           Population inversion found on atom  H   22
           Population inversion found on atom  H   24
           Population inversion found on atom  H   25
           Population inversion found on atom  H   26
           Population inversion found on atom  H   27
           Population inversion found on atom  H   28
           Population inversion found on atom  H   29
           Population inversion found on atom  H   30
           Population inversion found on atom  H   31
           Population inversion found on atom  H   32


 Summary of Natural Population Analysis:                  
                                                          
                                       Natural Population 
                Natural  -----------------------------------------------
    Atom  No    Charge         Core      Valence    Rydberg      Total
 -----------------------------------------------------------------------
      C    1   -0.29344      0.99967     2.28874    0.00503     3.29344
      C    2   -0.19068      0.99964     2.18500    0.00603     3.19068
      C    3   -0.18551      0.99963     2.17938    0.00649     3.18551
      C    4   -0.19084      0.99961     2.17914    0.01209     3.19084
      C    5   -0.09440      0.99948     2.08108    0.01383     3.09440
      N    6    0.08353      0.99964     2.40003    0.01679     3.41647
      N    7    0.10126      0.99982     2.38497    0.01395     3.39874
      C    8    0.38240      0.99960     1.59185    0.02616     2.61760
      O    9   -0.35454      0.99987     3.34957    0.00510     4.35454
      O   10   -0.29827      0.99985     3.28814    0.01028     4.29827
      C   11    0.13318      0.99954     1.85344    0.01384     2.86682
      C   12   -0.30175      0.99960     2.29560    0.00655     3.30175
      C   13   -0.28851      0.99960     2.28169    0.00721     3.28851
      C   14   -0.30177      0.99960     2.29559    0.00658     3.30177
      H   15    0.11439      0.00000     0.38444    0.00117     0.38561
      H   16    0.09263      0.00000     0.40634    0.00103     0.40737
      H   17    0.08750      0.00000     0.41130    0.00120     0.41250
      H   18    0.10025      0.00000     0.39822    0.00153     0.39975
      H   19    0.08682      0.00000     0.41210    0.00108     0.41318
      H   20    0.09603      0.00000     0.40299    0.00098     0.40397
      H   21    0.08602      0.00000     0.41284    0.00115     0.41398
      H   22    0.09254      0.00000     0.40649    0.00097     0.40746
      H   23    0.10914      0.00000     0.38941    0.00145     0.39086
      H   24    0.10097      0.00000     0.39813    0.00089     0.39903
      H   25    0.09789      0.00000     0.40125    0.00086     0.40211
      H   26    0.11489      0.00000     0.38415    0.00096     0.38511
      H   27    0.10423      0.00000     0.39469    0.00108     0.39577
      H   28    0.09781      0.00000     0.40102    0.00117     0.40219
      H   29    0.10438      0.00000     0.39453    0.00109     0.39562
      H   30    0.10103      0.00000     0.39816    0.00081     0.39897
      H   31    0.11517      0.00000     0.38391    0.00092     0.38483
      H   32    0.09765      0.00000     0.40148    0.00087     0.40235
 =======================================================================
   * Total *   -0.00000     13.99516    39.83568    0.16915    54.00000

                                 Natural Population      
 --------------------------------------------------------
   Core                      13.99516 ( 99.9654% of  14)
   Valence                   39.83568 ( 99.5892% of  40)
   Natural Minimal Basis     53.83085 ( 99.6868% of  54)
   Natural Rydberg Basis      0.16915 (  0.3132% of  54)
 --------------------------------------------------------

    Atom  No          Natural Electron Configuration
 ----------------------------------------------------------------------------
      C    1      [core]2S( 0.54)2p( 1.75)
      C    2      [core]2S( 0.51)2p( 1.67)
      C    3      [core]2S( 0.51)2p( 1.67)
      C    4      [core]2S( 0.51)2p( 1.67)3p( 0.01)
      C    5      [core]2S( 0.43)2p( 1.65)
      N    6      [core]2S( 0.55)2p( 1.85)4p( 0.01)
      N    7      [core]2S( 0.80)2p( 1.59)3p( 0.01)
      C    8      [core]2S( 0.37)2p( 1.22)3p( 0.01)3d( 0.01)
      O    9      [core]2S( 0.85)2p( 2.50)
      O   10      [core]2S( 0.81)2p( 2.48)
      C   11      [core]2S( 0.45)2p( 1.40)3p( 0.01)
      C   12      [core]2S( 0.54)2p( 1.76)
      C   13      [core]2S( 0.54)2p( 1.74)
      C   14      [core]2S( 0.54)2p( 1.76)
      H   15            1S( 0.38)
      H   16            1S( 0.41)
      H   17            1S( 0.41)
      H   18            1S( 0.40)
      H   19            1S( 0.41)
      H   20            1S( 0.40)
      H   21            1S( 0.41)
      H   22            1S( 0.41)
      H   23            1S( 0.39)
      H   24            1S( 0.40)
      H   25            1S( 0.40)
      H   26            1S( 0.38)
      H   27            1S( 0.39)
      H   28            1S( 0.40)
      H   29            1S( 0.39)
      H   30            1S( 0.40)
      H   31            1S( 0.38)
      H   32            1S( 0.40)


 NBO analysis skipped by request.
 1\1\GINC-NODE109\SP\UB3LYP\6-311++G(d,p)\C10H18N2O2(1-,2)\VSC10255\10-
 Dec-2020\0\\# B3LYP/6-311++G(d,p) empiricaldispersion=gd3bj scf=xqc po
 p=npa geom=check\\CID_125497472_JID_4456_Energie_anion\\-1,2\C,0,1.303
 371698,0.2256771651,-1.1461966192\C,0,1.2709428813,1.1860206802,0.0469
 553579\C,0,1.1031766716,2.6610037164,-0.3412681239\C,0,-0.2124085425,2
 .9892561219,-1.0720965098\C,0,-1.4569723039,2.6248088305,-0.2972827152
 \N,0,-1.7632046859,3.3062251219,0.7758637916\N,0,-2.0106751677,3.92288
 12476,1.7024638786\C,0,-2.3051113213,1.4886314676,-0.6541436157\O,0,-2
 .090349006,0.7897281592,-1.6323475308\O,0,-3.3201591235,1.3354408491,0
 .2224070062\C,0,-4.2881119867,0.2350946685,0.0841752451\C,0,-3.5638845
 88,-1.1079574235,0.1942719274\C,0,-5.2122555337,0.4558860447,1.2808976
 342\C,0,-5.0550019363,0.3784832327,-1.2315875111\H,0,0.3425640154,0.20
 45805169,-1.6685746891\H,0,1.5241839492,-0.7958100901,-0.8166618268\H,
 0,2.0799223646,0.5177919739,-1.8646724725\H,0,0.4581688021,0.896302912
 1,0.72667208\H,0,2.1996115058,1.087562098,0.6239047134\H,0,1.171918624
 2,3.2827943696,0.5621975798\H,0,1.9367015582,2.9664838596,-0.988672762
 1\H,0,-0.2291538984,4.0552709669,-1.3314309716\H,0,-0.2844834692,2.430
 9579497,-2.0090913256\H,0,-2.9812837703,-1.148325937,1.1207975953\H,0,
 -4.3000933029,-1.9187191839,0.2184260926\H,0,-2.8947494625,-1.26437876
 75,-0.652650751\H,0,-5.6896440714,1.4389765968,1.2224306404\H,0,-5.993
 4522655,-0.3107687063,1.2968850587\H,0,-4.6493271458,0.3998407492,2.21
 77934244\H,0,-5.5098858467,1.3724843019,-1.2976801628\H,0,-4.395983376
 2,0.2321020624,-2.0881215112\H,0,-5.8568112657,-0.3670055541,-1.269562
 927\\Version=ES64L-G16RevA.03\State=2-A\HF=-652.0777897\S2=0.753468\S2
 -1=0.\S2A=0.750009\RMSD=3.718e-09\Dipole=1.4803265,-0.5891636,-0.93840
 83\Quadrupole=-3.5638041,-0.4303731,3.9941772,-6.7937918,5.0889138,-8.
 2621492\PG=C01 [X(C10H18N2O2)]\\@


 THE MORE PROGRESS PHYSICAL SCIENCES MAKE, THE MORE THEY TEND TO ENTER
 THE DOMAIN OF MATHEMATICS, WHICH IS A KIND OF CENTRE TO WHICH THEY ALL
 CONVERGE.  WE MAY EVEN JUDGE THE DEGREE OF PERFECTION TO WHICH A 
 SCIENCE HAS ARRIVED BY THE FACILITY WITH WHICH IT MAY BE SUBMITTED
 TO CALCULATION.

                               -- ADOLPHE QUETELET, 1796-1874
 Job cpu time:       0 days  0 hours 58 minutes 31.1 seconds.
 Elapsed time:       0 days  0 hours 15 minutes  4.7 seconds.
 File lengths (MBytes):  RWF=    236 Int=      0 D2E=      0 Chk=     24 Scr=      8
 Normal termination of Gaussian 16 at Thu Dec 10 10:39:43 2020.
