 Entering Gaussian System, Link 0=g16
 Initial command:
 /apps/brussel/CO7/skylake/software/Gaussian/G16.A.03-intel-2017b/g16/l1.exe "/scratch/brussel/102/vsc10255/3548596[5130].master01.hydra.brussel.vsc/Gau-127559.inp" -scrdir="/scratch/brussel/102/vsc10255/3548596[5130].master01.hydra.brussel.vsc/"
 Entering Link 1 = /apps/brussel/CO7/skylake/software/Gaussian/G16.A.03-intel-2017b/g16/l1.exe.bin PID=    127560.
  
 Copyright (c) 1988,1990,1992,1993,1995,1998,2003,2009,2016,
            Gaussian, Inc.  All Rights Reserved.
  
 This is part of the Gaussian(R) 16 program.  It is based on
 the Gaussian(R) 09 system (copyright 2009, Gaussian, Inc.),
 the Gaussian(R) 03 system (copyright 2003, Gaussian, Inc.),
 the Gaussian(R) 98 system (copyright 1998, Gaussian, Inc.),
 the Gaussian(R) 94 system (copyright 1995, Gaussian, Inc.),
 the Gaussian 92(TM) system (copyright 1992, Gaussian, Inc.),
 the Gaussian 90(TM) system (copyright 1990, Gaussian, Inc.),
 the Gaussian 88(TM) system (copyright 1988, Gaussian, Inc.),
 the Gaussian 86(TM) system (copyright 1986, Carnegie Mellon
 University), and the Gaussian 82(TM) system (copyright 1983,
 Carnegie Mellon University). Gaussian is a federally registered
 trademark of Gaussian, Inc.
  
 This software contains proprietary and confidential information,
 including trade secrets, belonging to Gaussian, Inc.
  
 This software is provided under written license and may be
 used, copied, transmitted, or stored only in accord with that
 written license.
  
 The following legend is applicable only to US Government
 contracts under FAR:
  
                    RESTRICTED RIGHTS LEGEND
  
 Use, reproduction and disclosure by the US Government is
 subject to restrictions as set forth in subparagraphs (a)
 and (c) of the Commercial Computer Software - Restricted
 Rights clause in FAR 52.227-19.
  
 Gaussian, Inc.
 340 Quinnipiac St., Bldg. 40, Wallingford CT 06492
  
  
 ---------------------------------------------------------------
 Warning -- This program may not be used in any manner that
 competes with the business of Gaussian, Inc. or will provide
 assistance to any competitor of Gaussian, Inc.  The licensee
 of this program is prohibited from giving any competitor of
 Gaussian, Inc. access to this program.  By using this program,
 the user acknowledges that Gaussian, Inc. is engaged in the
 business of creating and licensing software in the field of
 computational chemistry and represents and warrants to the
 licensee that it is not a competitor of Gaussian, Inc. and that
 it will not use this program in any manner prohibited above.
 ---------------------------------------------------------------
  

 Cite this work as:
 Gaussian 16, Revision A.03,
 M. J. Frisch, G. W. Trucks, H. B. Schlegel, G. E. Scuseria, 
 M. A. Robb, J. R. Cheeseman, G. Scalmani, V. Barone, 
 G. A. Petersson, H. Nakatsuji, X. Li, M. Caricato, A. V. Marenich, 
 J. Bloino, B. G. Janesko, R. Gomperts, B. Mennucci, H. P. Hratchian, 
 J. V. Ortiz, A. F. Izmaylov, J. L. Sonnenberg, D. Williams-Young, 
 F. Ding, F. Lipparini, F. Egidi, J. Goings, B. Peng, A. Petrone, 
 T. Henderson, D. Ranasinghe, V. G. Zakrzewski, J. Gao, N. Rega, 
 G. Zheng, W. Liang, M. Hada, M. Ehara, K. Toyota, R. Fukuda, 
 J. Hasegawa, M. Ishida, T. Nakajima, Y. Honda, O. Kitao, H. Nakai, 
 T. Vreven, K. Throssell, J. A. Montgomery, Jr., J. E. Peralta, 
 F. Ogliaro, M. J. Bearpark, J. J. Heyd, E. N. Brothers, K. N. Kudin, 
 V. N. Staroverov, T. A. Keith, R. Kobayashi, J. Normand, 
 K. Raghavachari, A. P. Rendell, J. C. Burant, S. S. Iyengar, 
 J. Tomasi, M. Cossi, J. M. Millam, M. Klene, C. Adamo, R. Cammi, 
 J. W. Ochterski, R. L. Martin, K. Morokuma, O. Farkas, 
 J. B. Foresman, and D. J. Fox, Gaussian, Inc., Wallingford CT, 2016.
 
 ******************************************
 Gaussian 16:  ES64L-G16RevA.03 25-Dec-2016
                10-Dec-2020 
 ******************************************
 %chk=JID_5130.chk
 %mem=8GB
 %nprocshared=4
 Will use up to    4 processors via shared memory.
 -----------------------------------------------------------
 # opt freq B3LYP/6-31G(d) empiricaldispersion=gd3bj scf=xqc
 -----------------------------------------------------------
 1/18=20,19=15,26=3,38=1/1,3;
 2/9=110,12=2,17=6,18=5,40=1/2;
 3/5=1,6=6,7=1,11=2,25=1,30=1,71=1,74=-5,124=41/1,2,3;
 4//1;
 5/5=2,8=3,13=1,38=5/2,8;
 6/7=2,8=2,9=2,10=2,28=1/1;
 7//1,2,3,16;
 1/18=20,19=15,26=3/3(2);
 2/9=110/2;
 99//99;
 2/9=110/2;
 3/5=1,6=6,7=1,11=2,25=1,30=1,71=1,74=-5,124=41/1,2,3;
 4/5=5,16=3,69=1/1;
 5/5=2,8=3,13=1,38=5/2,8;
 7//1,2,3,16;
 1/18=20,19=15,26=3/3(-5);
 2/9=110/2;
 6/7=2,8=2,9=2,10=2,19=2,28=1/1;
 99/9=1/99;
 -------------------------------
 CID_125121716_JID_5130_neutraal
 -------------------------------
 Symbolic Z-matrix:
 Charge =  0 Multiplicity = 1
 C                     5.18679  -2.07387   3.10166 
 C                     5.52114  -0.64076   2.73093 
 C                     4.46072   0.10688   1.90671 
 C                     3.07465   0.43546   2.54761 
 C                     3.27588   0.92397   4.00136 
 C                     2.45706   1.61411   1.76609 
 C                     2.09066  -0.77622   2.58602 
 C                     1.42112  -1.31924   1.29372 
 O                     1.04838  -2.69435   1.56613 
 C                     1.93062  -3.68887   1.26409 
 O                     1.96806  -4.7339    1.90039 
 O                     2.75569  -3.44377   0.20351 
 O                     2.15287  -2.38292  -0.56583 
 O                     2.26199  -1.14993   0.16429 
 C                     0.09782  -0.60943   0.99225 
 H                     4.468    -2.1182    3.92325 
 H                     6.09026  -2.58946   3.44453 
 H                     4.79088  -2.62615   2.24469 
 H                     5.7766   -0.07665   3.63457 
 H                     6.43921  -0.66285   2.12883 
 H                     4.93163   1.06143   1.62947 
 H                     4.3312   -0.42256   0.95879 
 H                     4.00761   1.73856   4.0484 
 H                     2.33751   1.30123   4.4246 
 H                     3.62303   0.11786   4.65583 
 H                     2.37439   1.39658   0.69704 
 H                     1.46157   1.86537   2.14811 
 H                     3.07442   2.51568   1.85982 
 H                     2.60464  -1.61237   3.06765 
 H                     1.28202  -0.54897   3.2969 
 H                    -0.40135  -1.09112   0.14242 
 H                    -0.59354  -0.67251   1.83955 
 H                     0.23503   0.43851   0.7173 
 

 GradGradGradGradGradGradGradGradGradGradGradGradGradGradGradGradGradGrad
 Berny optimization.
 Initialization pass.
                           ----------------------------
                           !    Initial Parameters    !
                           ! (Angstroms and Degrees)  !
 --------------------------                            --------------------------
 ! Name  Definition              Value          Derivative Info.                !
 --------------------------------------------------------------------------------
 ! R1    R(1,2)                  1.5176         estimate D2E/DX2                !
 ! R2    R(1,16)                 1.0925         estimate D2E/DX2                !
 ! R3    R(1,17)                 1.0953         estimate D2E/DX2                !
 ! R4    R(1,18)                 1.0937         estimate D2E/DX2                !
 ! R5    R(2,3)                  1.5371         estimate D2E/DX2                !
 ! R6    R(2,19)                 1.0955         estimate D2E/DX2                !
 ! R7    R(2,20)                 1.0981         estimate D2E/DX2                !
 ! R8    R(3,4)                  1.562          estimate D2E/DX2                !
 ! R9    R(3,21)                 1.0999         estimate D2E/DX2                !
 ! R10   R(3,22)                 1.0935         estimate D2E/DX2                !
 ! R11   R(4,5)                  1.5468         estimate D2E/DX2                !
 ! R12   R(4,6)                  1.5432         estimate D2E/DX2                !
 ! R13   R(4,7)                  1.5614         estimate D2E/DX2                !
 ! R14   R(5,23)                 1.096          estimate D2E/DX2                !
 ! R15   R(5,24)                 1.0964         estimate D2E/DX2                !
 ! R16   R(5,25)                 1.0948         estimate D2E/DX2                !
 ! R17   R(6,26)                 1.0941         estimate D2E/DX2                !
 ! R18   R(6,27)                 1.0955         estimate D2E/DX2                !
 ! R19   R(6,28)                 1.0967         estimate D2E/DX2                !
 ! R20   R(7,8)                  1.5534         estimate D2E/DX2                !
 ! R21   R(7,29)                 1.0933         estimate D2E/DX2                !
 ! R22   R(7,30)                 1.1004         estimate D2E/DX2                !
 ! R23   R(8,9)                  1.4505         estimate D2E/DX2                !
 ! R24   R(8,14)                 1.4182         estimate D2E/DX2                !
 ! R25   R(8,15)                 1.5316         estimate D2E/DX2                !
 ! R26   R(9,10)                 1.3633         estimate D2E/DX2                !
 ! R27   R(10,11)                1.2241         estimate D2E/DX2                !
 ! R28   R(10,12)                1.3659         estimate D2E/DX2                !
 ! R29   R(12,13)                1.4425         estimate D2E/DX2                !
 ! R30   R(13,14)                1.4371         estimate D2E/DX2                !
 ! R31   R(15,31)                1.097          estimate D2E/DX2                !
 ! R32   R(15,32)                1.0954         estimate D2E/DX2                !
 ! R33   R(15,33)                1.0921         estimate D2E/DX2                !
 ! A1    A(2,1,16)             111.5291         estimate D2E/DX2                !
 ! A2    A(2,1,17)             109.8327         estimate D2E/DX2                !
 ! A3    A(2,1,18)             111.42           estimate D2E/DX2                !
 ! A4    A(16,1,17)            106.7492         estimate D2E/DX2                !
 ! A5    A(16,1,18)            109.3045         estimate D2E/DX2                !
 ! A6    A(17,1,18)            107.8291         estimate D2E/DX2                !
 ! A7    A(1,2,3)              115.9963         estimate D2E/DX2                !
 ! A8    A(1,2,19)             109.6427         estimate D2E/DX2                !
 ! A9    A(1,2,20)             107.4062         estimate D2E/DX2                !
 ! A10   A(3,2,19)             110.6539         estimate D2E/DX2                !
 ! A11   A(3,2,20)             107.01           estimate D2E/DX2                !
 ! A12   A(19,2,20)            105.5266         estimate D2E/DX2                !
 ! A13   A(2,3,4)              119.6345         estimate D2E/DX2                !
 ! A14   A(2,3,21)             105.1832         estimate D2E/DX2                !
 ! A15   A(2,3,22)             108.1226         estimate D2E/DX2                !
 ! A16   A(4,3,21)             107.5041         estimate D2E/DX2                !
 ! A17   A(4,3,22)             110.6365         estimate D2E/DX2                !
 ! A18   A(21,3,22)            104.62           estimate D2E/DX2                !
 ! A19   A(3,4,5)              109.671          estimate D2E/DX2                !
 ! A20   A(3,4,6)              107.9387         estimate D2E/DX2                !
 ! A21   A(3,4,7)              113.9582         estimate D2E/DX2                !
 ! A22   A(5,4,6)              106.6677         estimate D2E/DX2                !
 ! A23   A(5,4,7)              107.6955         estimate D2E/DX2                !
 ! A24   A(6,4,7)              110.6688         estimate D2E/DX2                !
 ! A25   A(4,5,23)             111.2188         estimate D2E/DX2                !
 ! A26   A(4,5,24)             111.1095         estimate D2E/DX2                !
 ! A27   A(4,5,25)             111.7491         estimate D2E/DX2                !
 ! A28   A(23,5,24)            107.4043         estimate D2E/DX2                !
 ! A29   A(23,5,25)            108.0525         estimate D2E/DX2                !
 ! A30   A(24,5,25)            107.0963         estimate D2E/DX2                !
 ! A31   A(4,6,26)             111.9149         estimate D2E/DX2                !
 ! A32   A(4,6,27)             111.2386         estimate D2E/DX2                !
 ! A33   A(4,6,28)             111.0582         estimate D2E/DX2                !
 ! A34   A(26,6,27)            108.5229         estimate D2E/DX2                !
 ! A35   A(26,6,28)            106.8276         estimate D2E/DX2                !
 ! A36   A(27,6,28)            107.049          estimate D2E/DX2                !
 ! A37   A(4,7,8)              121.4952         estimate D2E/DX2                !
 ! A38   A(4,7,29)             107.9432         estimate D2E/DX2                !
 ! A39   A(4,7,30)             108.5869         estimate D2E/DX2                !
 ! A40   A(8,7,29)             107.5631         estimate D2E/DX2                !
 ! A41   A(8,7,30)             107.0304         estimate D2E/DX2                !
 ! A42   A(29,7,30)            102.6399         estimate D2E/DX2                !
 ! A43   A(7,8,9)              106.613          estimate D2E/DX2                !
 ! A44   A(7,8,14)             111.4212         estimate D2E/DX2                !
 ! A45   A(7,8,15)             111.9703         estimate D2E/DX2                !
 ! A46   A(9,8,14)             114.5249         estimate D2E/DX2                !
 ! A47   A(9,8,15)             104.7314         estimate D2E/DX2                !
 ! A48   A(14,8,15)            107.4689         estimate D2E/DX2                !
 ! A49   A(8,9,10)             118.9242         estimate D2E/DX2                !
 ! A50   A(9,10,11)            121.8305         estimate D2E/DX2                !
 ! A51   A(9,10,12)            115.5961         estimate D2E/DX2                !
 ! A52   A(11,10,12)           122.5713         estimate D2E/DX2                !
 ! A53   A(10,12,13)           107.0776         estimate D2E/DX2                !
 ! A54   A(12,13,14)           109.165          estimate D2E/DX2                !
 ! A55   A(8,14,13)            104.9012         estimate D2E/DX2                !
 ! A56   A(8,15,31)            110.0068         estimate D2E/DX2                !
 ! A57   A(8,15,32)            111.4921         estimate D2E/DX2                !
 ! A58   A(8,15,33)            112.6883         estimate D2E/DX2                !
 ! A59   A(31,15,32)           106.6635         estimate D2E/DX2                !
 ! A60   A(31,15,33)           106.4683         estimate D2E/DX2                !
 ! A61   A(32,15,33)           109.2269         estimate D2E/DX2                !
 ! D1    D(16,1,2,3)           -76.7416         estimate D2E/DX2                !
 ! D2    D(16,1,2,19)           49.4671         estimate D2E/DX2                !
 ! D3    D(16,1,2,20)          163.6569         estimate D2E/DX2                !
 ! D4    D(17,1,2,3)           165.1194         estimate D2E/DX2                !
 ! D5    D(17,1,2,19)          -68.6719         estimate D2E/DX2                !
 ! D6    D(17,1,2,20)           45.5179         estimate D2E/DX2                !
 ! D7    D(18,1,2,3)            45.705          estimate D2E/DX2                !
 ! D8    D(18,1,2,19)          171.9137         estimate D2E/DX2                !
 ! D9    D(18,1,2,20)          -73.8965         estimate D2E/DX2                !
 ! D10   D(1,2,3,4)             66.3165         estimate D2E/DX2                !
 ! D11   D(1,2,3,21)          -172.824          estimate D2E/DX2                !
 ! D12   D(1,2,3,22)           -61.4776         estimate D2E/DX2                !
 ! D13   D(19,2,3,4)           -59.3806         estimate D2E/DX2                !
 ! D14   D(19,2,3,21)           61.4788         estimate D2E/DX2                !
 ! D15   D(19,2,3,22)          172.8253         estimate D2E/DX2                !
 ! D16   D(20,2,3,4)          -173.8669         estimate D2E/DX2                !
 ! D17   D(20,2,3,21)          -53.0075         estimate D2E/DX2                !
 ! D18   D(20,2,3,22)           58.339          estimate D2E/DX2                !
 ! D19   D(2,3,4,5)             42.178          estimate D2E/DX2                !
 ! D20   D(2,3,4,6)            158.02           estimate D2E/DX2                !
 ! D21   D(2,3,4,7)            -78.6243         estimate D2E/DX2                !
 ! D22   D(21,3,4,5)           -77.5155         estimate D2E/DX2                !
 ! D23   D(21,3,4,6)            38.3265         estimate D2E/DX2                !
 ! D24   D(21,3,4,7)           161.6822         estimate D2E/DX2                !
 ! D25   D(22,3,4,5)           168.8074         estimate D2E/DX2                !
 ! D26   D(22,3,4,6)           -75.3505         estimate D2E/DX2                !
 ! D27   D(22,3,4,7)            48.0051         estimate D2E/DX2                !
 ! D28   D(3,4,5,23)            52.0096         estimate D2E/DX2                !
 ! D29   D(3,4,5,24)           171.6025         estimate D2E/DX2                !
 ! D30   D(3,4,5,25)           -68.8403         estimate D2E/DX2                !
 ! D31   D(6,4,5,23)           -64.6356         estimate D2E/DX2                !
 ! D32   D(6,4,5,24)            54.9573         estimate D2E/DX2                !
 ! D33   D(6,4,5,25)           174.5145         estimate D2E/DX2                !
 ! D34   D(7,4,5,23)           176.5307         estimate D2E/DX2                !
 ! D35   D(7,4,5,24)           -63.8764         estimate D2E/DX2                !
 ! D36   D(7,4,5,25)            55.6807         estimate D2E/DX2                !
 ! D37   D(3,4,6,26)            56.2286         estimate D2E/DX2                !
 ! D38   D(3,4,6,27)           177.8116         estimate D2E/DX2                !
 ! D39   D(3,4,6,28)           -63.064          estimate D2E/DX2                !
 ! D40   D(5,4,6,26)           174.0207         estimate D2E/DX2                !
 ! D41   D(5,4,6,27)           -64.3963         estimate D2E/DX2                !
 ! D42   D(5,4,6,28)            54.728          estimate D2E/DX2                !
 ! D43   D(7,4,6,26)           -69.1032         estimate D2E/DX2                !
 ! D44   D(7,4,6,27)            52.4798         estimate D2E/DX2                !
 ! D45   D(7,4,6,28)           171.6042         estimate D2E/DX2                !
 ! D46   D(3,4,7,8)            -71.7094         estimate D2E/DX2                !
 ! D47   D(3,4,7,29)            53.0677         estimate D2E/DX2                !
 ! D48   D(3,4,7,30)           163.6507         estimate D2E/DX2                !
 ! D49   D(5,4,7,8)            166.3916         estimate D2E/DX2                !
 ! D50   D(5,4,7,29)           -68.8313         estimate D2E/DX2                !
 ! D51   D(5,4,7,30)            41.7518         estimate D2E/DX2                !
 ! D52   D(6,4,7,8)             50.1512         estimate D2E/DX2                !
 ! D53   D(6,4,7,29)           174.9283         estimate D2E/DX2                !
 ! D54   D(6,4,7,30)           -74.4886         estimate D2E/DX2                !
 ! D55   D(4,7,8,9)            157.1334         estimate D2E/DX2                !
 ! D56   D(4,7,8,14)            31.5162         estimate D2E/DX2                !
 ! D57   D(4,7,8,15)           -88.8807         estimate D2E/DX2                !
 ! D58   D(29,7,8,9)            32.1817         estimate D2E/DX2                !
 ! D59   D(29,7,8,14)          -93.4355         estimate D2E/DX2                !
 ! D60   D(29,7,8,15)          146.1675         estimate D2E/DX2                !
 ! D61   D(30,7,8,9)           -77.5125         estimate D2E/DX2                !
 ! D62   D(30,7,8,14)          156.8703         estimate D2E/DX2                !
 ! D63   D(30,7,8,15)           36.4733         estimate D2E/DX2                !
 ! D64   D(7,8,9,10)           -91.5105         estimate D2E/DX2                !
 ! D65   D(14,8,9,10)           32.2039         estimate D2E/DX2                !
 ! D66   D(15,8,9,10)          149.6642         estimate D2E/DX2                !
 ! D67   D(7,8,14,13)          137.3212         estimate D2E/DX2                !
 ! D68   D(9,8,14,13)           16.2184         estimate D2E/DX2                !
 ! D69   D(15,8,14,13)         -99.6689         estimate D2E/DX2                !
 ! D70   D(7,8,15,31)         -173.6499         estimate D2E/DX2                !
 ! D71   D(7,8,15,32)          -55.5288         estimate D2E/DX2                !
 ! D72   D(7,8,15,33)           67.7159         estimate D2E/DX2                !
 ! D73   D(9,8,15,31)          -58.509          estimate D2E/DX2                !
 ! D74   D(9,8,15,32)           59.6121         estimate D2E/DX2                !
 ! D75   D(9,8,15,33)         -177.1432         estimate D2E/DX2                !
 ! D76   D(14,8,15,31)          63.6787         estimate D2E/DX2                !
 ! D77   D(14,8,15,32)        -178.2003         estimate D2E/DX2                !
 ! D78   D(14,8,15,33)         -54.9555         estimate D2E/DX2                !
 ! D79   D(8,9,10,11)          150.0013         estimate D2E/DX2                !
 ! D80   D(8,9,10,12)          -30.5047         estimate D2E/DX2                !
 ! D81   D(9,10,12,13)         -18.894          estimate D2E/DX2                !
 ! D82   D(11,10,12,13)        160.5958         estimate D2E/DX2                !
 ! D83   D(10,12,13,14)         71.1939         estimate D2E/DX2                !
 ! D84   D(12,13,14,8)         -67.509          estimate D2E/DX2                !
 --------------------------------------------------------------------------------
 Trust Radius=3.00D-01 FncErr=1.00D-07 GrdErr=1.00D-06 EigMax=2.50D+02 EigMin=1.00D-04
 Number of steps in this run=    188 maximum allowed number of steps=    198.
 GradGradGradGradGradGradGradGradGradGradGradGradGradGradGradGradGradGrad

                          Input orientation:                          
 ---------------------------------------------------------------------
 Center     Atomic      Atomic             Coordinates (Angstroms)
 Number     Number       Type             X           Y           Z
 ---------------------------------------------------------------------
      1          6           0        5.186790   -2.073870    3.101660
      2          6           0        5.521140   -0.640760    2.730930
      3          6           0        4.460720    0.106880    1.906710
      4          6           0        3.074650    0.435460    2.547610
      5          6           0        3.275880    0.923970    4.001360
      6          6           0        2.457060    1.614110    1.766090
      7          6           0        2.090660   -0.776220    2.586020
      8          6           0        1.421120   -1.319240    1.293720
      9          8           0        1.048380   -2.694350    1.566130
     10          6           0        1.930620   -3.688870    1.264090
     11          8           0        1.968060   -4.733900    1.900390
     12          8           0        2.755690   -3.443770    0.203510
     13          8           0        2.152870   -2.382920   -0.565830
     14          8           0        2.261990   -1.149930    0.164290
     15          6           0        0.097820   -0.609430    0.992250
     16          1           0        4.468000   -2.118200    3.923250
     17          1           0        6.090260   -2.589460    3.444530
     18          1           0        4.790880   -2.626150    2.244690
     19          1           0        5.776600   -0.076650    3.634570
     20          1           0        6.439210   -0.662850    2.128830
     21          1           0        4.931630    1.061430    1.629470
     22          1           0        4.331200   -0.422560    0.958790
     23          1           0        4.007610    1.738560    4.048400
     24          1           0        2.337510    1.301230    4.424600
     25          1           0        3.623030    0.117860    4.655830
     26          1           0        2.374390    1.396580    0.697040
     27          1           0        1.461570    1.865370    2.148110
     28          1           0        3.074420    2.515680    1.859820
     29          1           0        2.604640   -1.612370    3.067650
     30          1           0        1.282020   -0.548970    3.296900
     31          1           0       -0.401350   -1.091120    0.142420
     32          1           0       -0.593540   -0.672510    1.839550
     33          1           0        0.235030    0.438510    0.717300
 ---------------------------------------------------------------------
                    Distance matrix (angstroms):
                    1          2          3          4          5
     1  C    0.000000
     2  C    1.517575   0.000000
     3  C    2.590512   1.537138   0.000000
     4  C    3.326386   2.679024   1.562020   0.000000
     5  C    3.667163   3.017211   2.541464   1.546779   0.000000
     6  C    4.778741   3.924785   2.511209   1.543181   2.478546
     7  C    3.396439   3.436210   2.618876   1.561371   2.509697
     8  C    4.244807   4.397280   3.413026   2.717604   3.975354
     9  O    4.457498   5.057625   4.427973   3.855487   4.897381
    10  C    4.072779   4.932994   4.606743   4.468370   5.529979
    11  O    4.345001   5.483427   5.444864   5.325948   6.175432
    12  O    4.023201   4.678935   4.291286   4.543673   5.811318
    13  O    4.769766   5.024837   4.199849   4.299588   5.749426
    14  O    4.246912   4.179588   3.074087   2.975583   4.477962
    15  C    5.700159   5.695295   4.514890   3.517450   4.637470
    16  H    1.092536   2.171073   3.002910   3.217917   3.268340
    17  H    1.095286   2.151872   3.505787   4.364460   4.535966
    18  H    1.093689   2.170595   2.773570   3.522877   4.240810
    19  H    2.149595   1.095466   2.179615   2.957072   2.718341
    20  H    2.122718   1.098119   2.134536   3.563976   4.003876
    21  H    3.473119   2.111442   1.099902   2.164069   2.895905
    22  H    2.837385   2.145705   1.093451   2.199878   3.490570
    23  H    4.101391   3.112501   2.730297   2.195644   1.095992
    24  H    4.610842   4.095771   3.503464   2.194544   1.096356
    25  H    3.108773   2.807769   2.873936   2.201405   1.094832
    26  H    5.073048   4.264915   2.734849   2.199710   3.457539
    27  H    5.504919   4.806295   3.485034   2.192321   2.759074
    28  H    5.202715   4.087589   2.779630   2.190975   2.675878
    29  H    2.623288   3.092471   2.783637   2.164477   2.784852
    30  H    4.196507   4.277720   3.530850   2.178086   2.577071
    31  H    6.399235   6.479128   5.309204   4.494214   5.698599
    32  H    6.080209   6.179391   5.114441   3.896738   4.711113
    33  H    6.042942   5.758688   4.402401   3.378385   4.501943
                    6          7          8          9         10
     6  C    0.000000
     7  C    2.553471   0.000000
     8  C    3.146561   1.553446   0.000000
     9  O    4.537311   2.409512   1.450541   0.000000
    10  C    5.352639   3.202599   2.423967   1.363322   0.000000
    11  O    6.368233   4.018501   3.510996   2.262146   1.224078
    12  O    5.302168   3.637917   2.735555   2.309388   1.365886
    13  O    4.637524   3.538292   2.263802   2.421186   2.259094
    14  O    3.200583   2.456377   1.418217   2.413139   2.786679
    15  C    3.333012   2.557212   1.531613   2.362159   3.593884
    16  H    4.756822   3.039875   4.103199   4.193061   3.997053
    17  H    5.804076   4.474559   5.295310   5.381444   4.823445
    18  H    4.863700   3.290887   3.737331   3.804129   3.205002
    19  H    4.167641   3.895511   5.098413   5.786783   5.784364
    20  H    4.601483   4.373987   5.129277   5.788322   5.498359
    21  H    2.539216   3.516114   4.254879   5.402733   5.630712
    22  H    2.883081   2.791590   3.063459   4.038168   4.065067
    23  H    2.761998   3.483873   4.860898   5.879575   6.443855
    24  H    2.679526   2.785159   4.184381   5.079111   5.920767
    25  H    3.456710   2.726105   4.268190   4.907504   5.372089
    26  H    1.094085   2.893062   2.939461   4.387406   5.136174
    27  H    1.095478   2.750549   3.297478   4.615244   5.643676
    28  H    1.096698   3.511660   4.214319   5.597812   6.337161
    29  H    3.482242   1.093293   2.152550   2.418096   2.831781
    30  H    2.898795   1.100405   2.150673   2.766371   3.796310
    31  H    4.257356   3.504348   2.167701   2.588245   3.666679
    32  H    3.813160   2.787993   2.185188   2.618873   3.975043
    33  H    2.723860   2.900180   2.197443   3.346171   4.495472
                   11         12         13         14         15
    11  O    0.000000
    12  O    2.272487   0.000000
    13  O    3.412258   1.442456   0.000000
    14  O    3.993154   2.346696   1.437097   0.000000
    15  C    4.618849   3.964829   3.129874   2.379347   0.000000
    16  H    4.145304   4.304138   5.057840   4.464729   5.474086
    17  H    4.896481   4.727940   5.623939   5.242888   6.770785
    18  H    3.539698   2.996150   3.862290   3.592015   5.259332
    19  H    6.261177   5.677637   6.007800   5.054429   6.286036
    20  H    6.051183   5.000869   5.347200   4.641749   6.442662
    21  H    6.514752   5.202394   4.940081   3.763488   5.153983
    22  H    5.005866   3.490041   3.303422   2.332794   4.237635
    23  H    7.118037   6.573205   6.458930   5.145568   5.489952
    24  H    6.552169   6.364550   6.205759   4.915702   4.521931
    25  H    5.819875   5.767204   5.973358   4.861446   5.135940
    26  H    6.260666   4.880364   3.991057   2.604068   3.048606
    27  H    6.623312   5.800274   5.088353   3.697059   3.052943
    28  H    7.333627   6.193545   5.543403   4.119655   4.402174
    29  H    3.392887   3.402960   3.741660   2.959858   3.405484
    30  H    4.464810   4.485603   4.363764   3.336876   2.591794
    31  H    4.687687   3.937715   2.948628   2.664079   1.096999
    32  H    4.802123   4.644766   4.031640   3.344918   1.095388
    33  H    5.581838   4.657231   3.644859   2.633919   1.092063
                   16         17         18         19         20
    16  H    0.000000
    17  H    1.755843   0.000000
    18  H    1.783207   1.768997   0.000000
    19  H    2.442068   2.539431   3.066490   0.000000
    20  H    3.037047   2.358953   2.566118   1.746406   0.000000
    21  H    3.947965   4.238616   3.741197   2.455530   2.344205
    22  H    3.417884   3.737466   2.592422   3.060822   2.422899
    23  H    3.886157   4.840852   4.787230   2.568184   3.919719
    24  H    4.059907   5.493736   5.118139   3.788145   5.094322
    25  H    2.500122   3.857986   3.834979   2.391374   3.863432
    26  H    5.210116   6.102860   4.941356   4.730171   4.776404
    27  H    5.297034   6.553700   5.591725   4.959888   5.582935
    28  H    5.260480   6.137512   5.434407   4.143874   4.636511
    29  H    2.111877   3.639545   2.546499   3.569477   4.060406
    30  H    3.606281   5.225377   4.211166   4.531926   5.289042
    31  H    6.249811   7.435721   5.808193   7.168774   7.136000
    32  H    5.661361   7.136094   5.742197   6.644985   7.038704
    33  H    5.893464   7.133730   5.699196   6.283697   6.457342
                   21         22         23         24         25
    21  H    0.000000
    22  H    1.735671   0.000000
    23  H    2.676479   3.784289   0.000000
    24  H    3.820957   4.354089   1.766923   0.000000
    25  H    3.429521   3.802849   1.773004   1.762496   0.000000
    26  H    2.742486   2.684565   3.743791   3.728962   4.343529
    27  H    3.599531   3.857963   3.179544   2.503584   3.743576
    28  H    2.370049   3.320332   2.502927   2.931897   3.724001
    29  H    3.825239   2.973878   3.762835   3.225172   2.559908
    30  H    4.323582   3.844507   3.636810   2.410188   2.787773
    31  H    5.940157   4.848759   6.534730   5.617985   6.166696
    32  H    5.794669   5.009119   5.644719   4.378263   5.131820
    33  H    4.824742   4.192656   5.197953   4.348423   5.205130
                   26         27         28         29         30
    26  H    0.000000
    27  H    1.777247   0.000000
    28  H    1.759115   1.762753   0.000000
    29  H    3.837524   3.774498   4.326701   0.000000
    30  H    3.426034   2.679738   3.830141   1.712512   0.000000
    31  H    3.768420   4.029156   5.295229   4.226659   3.616408
    32  H    3.794084   3.280171   4.859928   3.552453   2.378415
    33  H    2.344178   2.363799   3.698935   3.917308   2.953920
                   31         32         33
    31  H    0.000000
    32  H    1.758528   0.000000
    33  H    1.753635   1.783350   0.000000
 Stoichiometry    C10H18O5
 Framework group  C1[X(C10H18O5)]
 Deg. of freedom    93
 Full point group                 C1      NOp   1
 Largest Abelian subgroup         C1      NOp   1
 Largest concise Abelian subgroup C1      NOp   1
                         Standard orientation:                         
 ---------------------------------------------------------------------
 Center     Atomic      Atomic             Coordinates (Angstroms)
 Number     Number       Type             X           Y           Z
 ---------------------------------------------------------------------
      1          6           0        1.186819    2.710989   -0.201714
      2          6           0        2.279308    2.004155    0.579240
      3          6           0        1.993636    0.544393    0.966901
      4          6           0        1.877409   -0.542493   -0.148931
      5          6           0        2.984477   -0.323238   -1.206689
      6          6           0        2.148395   -1.917582    0.496903
      7          6           0        0.504335   -0.543723   -0.892265
      8          6           0       -0.793080   -1.043791   -0.199559
      9          8           0       -1.902265   -0.425606   -0.900719
     10          6           0       -2.383842    0.767830   -0.450789
     11          8           0       -2.888016    1.587205   -1.207625
     12          8           0       -2.274995    0.978737    0.894319
     13          8           0       -2.082042   -0.310870    1.511055
     14          8           0       -0.765157   -0.792258    1.195894
     15          6           0       -1.001414   -2.549000   -0.391345
     16          1           0        1.176747    2.399333   -1.248807
     17          1           0        1.365485    3.791588   -0.195721
     18          1           0        0.201667    2.532018    0.238285
     19          1           0        3.228206    2.081422    0.037330
     20          1           0        2.428216    2.561431    1.513657
     21          1           0        2.824311    0.253695    1.626641
     22          1           0        1.110888    0.530320    1.612030
     23          1           0        3.972461   -0.251147   -0.737767
     24          1           0        3.019789   -1.155389   -1.919623
     25          1           0        2.816560    0.590269   -1.786315
     26          1           0        1.473520   -2.115181    1.335067
     27          1           0        2.042255   -2.726965   -0.233649
     28          1           0        3.169963   -1.972944    0.891974
     29          1           0        0.315678    0.470974   -1.252942
     30          1           0        0.611737   -1.115259   -1.826451
     31          1           0       -1.977706   -2.846974    0.010490
     32          1           0       -1.001717   -2.822158   -1.452128
     33          1           0       -0.254513   -3.147935    0.134029
 ---------------------------------------------------------------------
 Rotational constants (GHZ):           0.8031412           0.4849585           0.3886975
 Standard basis: 6-31G(d) (6D, 7F)
 There are   261 symmetry adapted cartesian basis functions of A   symmetry.
 There are   261 symmetry adapted basis functions of A   symmetry.
   261 basis functions,   492 primitive gaussians,   261 cartesian basis functions
    59 alpha electrons       59 beta electrons
       nuclear repulsion energy      1164.6821334219 Hartrees.
 NAtoms=   33 NActive=   33 NUniq=   33 SFac= 1.00D+00 NAtFMM=   60 NAOKFM=F Big=F
 Integral buffers will be    131072 words long.
 Raffenetti 2 integral format.
 Two-electron integral symmetry is turned on.
 Nuclear repulsion after empirical dispersion term =     1164.6217433013 Hartrees.
 One-electron integrals computed using PRISM.
 NBasis=   261 RedAO= T EigKep=  2.20D-03  NBF=   261
 NBsUse=   261 1.00D-06 EigRej= -1.00D+00 NBFU=   261
 ExpMin= 1.61D-01 ExpMax= 5.48D+03 ExpMxC= 8.25D+02 IAcc=3 IRadAn=         5 AccDes= 0.00D+00
 Harris functional with IExCor=  402 and IRadAn=       5 diagonalized for initial guess.
 HarFok:  IExCor=  402 AccDes= 0.00D+00 IRadAn=         5 IDoV= 1 UseB2=F ITyADJ=14
 ICtDFT=  3500011 ScaDFX=  1.000000  1.000000  1.000000  1.000000
 FoFCou: FMM=F IPFlag=           0 FMFlag=      100000 FMFlg1=           0
         NFxFlg=           0 DoJE=T BraDBF=F KetDBF=T FulRan=T
         wScrn=  0.000000 ICntrl=       500 IOpCl=  0 I1Cent=   200000004 NGrid=           0
         NMat0=    1 NMatS0=      1 NMatT0=    0 NMatD0=    1 NMtDS0=    0 NMtDT0=    0
 Petite list used in FoFCou.
 Keep R1 ints in memory in canonical form, NReq=593523504.
 Requested convergence on RMS density matrix=1.00D-08 within  32 cycles.
 Requested convergence on MAX density matrix=1.00D-06.
 Requested convergence on             energy=1.00D-06.
 No special actions if energy rises.
 Integral accuracy reduced to 1.0D-05 until final iterations.
 EnCoef did     2 forward-backward iterations
 Initial convergence to 1.0D-05 achieved.  Increase integral accuracy.
 SCF Done:  E(RB3LYP) =  -767.906163339     A.U. after   15 cycles
            NFock= 15  Conv=0.97D-08     -V/T= 2.0092
 QCSCF skips out because SCF is already converged.

 **********************************************************************

            Population analysis using the SCF density.

 **********************************************************************

 Orbital symmetries:
       Occupied  (A) (A) (A) (A) (A) (A) (A) (A) (A) (A) (A) (A)
                 (A) (A) (A) (A) (A) (A) (A) (A) (A) (A) (A) (A)
                 (A) (A) (A) (A) (A) (A) (A) (A) (A) (A) (A) (A)
                 (A) (A) (A) (A) (A) (A) (A) (A) (A) (A) (A) (A)
                 (A) (A) (A) (A) (A) (A) (A) (A) (A) (A) (A)
       Virtual   (A) (A) (A) (A) (A) (A) (A) (A) (A) (A) (A) (A)
                 (A) (A) (A) (A) (A) (A) (A) (A) (A) (A) (A) (A)
                 (A) (A) (A) (A) (A) (A) (A) (A) (A) (A) (A) (A)
                 (A) (A) (A) (A) (A) (A) (A) (A) (A) (A) (A) (A)
                 (A) (A) (A) (A) (A) (A) (A) (A) (A) (A) (A) (A)
                 (A) (A) (A) (A) (A) (A) (A) (A) (A) (A) (A) (A)
                 (A) (A) (A) (A) (A) (A) (A) (A) (A) (A) (A) (A)
                 (A) (A) (A) (A) (A) (A) (A) (A) (A) (A) (A) (A)
                 (A) (A) (A) (A) (A) (A) (A) (A) (A) (A) (A) (A)
                 (A) (A) (A) (A) (A) (A) (A) (A) (A) (A) (A) (A)
                 (A) (A) (A) (A) (A) (A) (A) (A) (A) (A) (A) (A)
                 (A) (A) (A) (A) (A) (A) (A) (A) (A) (A) (A) (A)
                 (A) (A) (A) (A) (A) (A) (A) (A) (A) (A) (A) (A)
                 (A) (A) (A) (A) (A) (A) (A) (A) (A) (A) (A) (A)
                 (A) (A) (A) (A) (A) (A) (A) (A) (A) (A) (A) (A)
                 (A) (A) (A) (A) (A) (A) (A) (A) (A) (A) (A) (A)
                 (A) (A) (A) (A) (A) (A) (A) (A) (A) (A)
 The electronic state is 1-A.
 Alpha  occ. eigenvalues --  -19.30987 -19.28205 -19.25922 -19.22932 -19.16439
 Alpha  occ. eigenvalues --  -10.39187 -10.33762 -10.21457 -10.20567 -10.19893
 Alpha  occ. eigenvalues --  -10.18301 -10.18203 -10.18053 -10.17923 -10.17294
 Alpha  occ. eigenvalues --   -1.24171  -1.12539  -1.09928  -1.03556  -0.91306
 Alpha  occ. eigenvalues --   -0.83644  -0.79213  -0.76744  -0.71560  -0.69288
 Alpha  occ. eigenvalues --   -0.68213  -0.66394  -0.63545  -0.59826  -0.59222
 Alpha  occ. eigenvalues --   -0.55063  -0.54077  -0.50750  -0.48654  -0.48269
 Alpha  occ. eigenvalues --   -0.47289  -0.46435  -0.45724  -0.44134  -0.43537
 Alpha  occ. eigenvalues --   -0.43108  -0.41901  -0.41425  -0.40846  -0.40072
 Alpha  occ. eigenvalues --   -0.39331  -0.38944  -0.38585  -0.37858  -0.36080
 Alpha  occ. eigenvalues --   -0.35234  -0.34855  -0.33945  -0.33099  -0.32949
 Alpha  occ. eigenvalues --   -0.31706  -0.30933  -0.30747  -0.29022
 Alpha virt. eigenvalues --   -0.05706  -0.01378   0.01207   0.06536   0.08716
 Alpha virt. eigenvalues --    0.10504   0.10865   0.11132   0.11726   0.13192
 Alpha virt. eigenvalues --    0.13573   0.13733   0.15040   0.16199   0.16540
 Alpha virt. eigenvalues --    0.16990   0.17589   0.18004   0.18521   0.19164
 Alpha virt. eigenvalues --    0.19460   0.20544   0.20977   0.21538   0.21951
 Alpha virt. eigenvalues --    0.23283   0.24014   0.24784   0.26346   0.27364
 Alpha virt. eigenvalues --    0.29319   0.30588   0.34636   0.35980   0.46705
 Alpha virt. eigenvalues --    0.48618   0.49294   0.49777   0.51269   0.52924
 Alpha virt. eigenvalues --    0.52987   0.54184   0.55921   0.56633   0.57480
 Alpha virt. eigenvalues --    0.58092   0.60509   0.60548   0.61057   0.62568
 Alpha virt. eigenvalues --    0.65296   0.67165   0.68226   0.69845   0.70779
 Alpha virt. eigenvalues --    0.72367   0.73202   0.75216   0.75800   0.77340
 Alpha virt. eigenvalues --    0.79470   0.79882   0.82304   0.83157   0.83641
 Alpha virt. eigenvalues --    0.84757   0.85906   0.86399   0.87639   0.88361
 Alpha virt. eigenvalues --    0.88976   0.89254   0.90031   0.90403   0.91902
 Alpha virt. eigenvalues --    0.92765   0.93473   0.93735   0.95862   0.96319
 Alpha virt. eigenvalues --    0.96995   0.97431   0.98477   0.99173   1.00432
 Alpha virt. eigenvalues --    1.01593   1.01778   1.03241   1.04356   1.05226
 Alpha virt. eigenvalues --    1.06406   1.07911   1.09223   1.10495   1.12226
 Alpha virt. eigenvalues --    1.15453   1.16503   1.19483   1.21559   1.23055
 Alpha virt. eigenvalues --    1.24863   1.33217   1.34332   1.36569   1.37194
 Alpha virt. eigenvalues --    1.42220   1.43571   1.45382   1.46380   1.50538
 Alpha virt. eigenvalues --    1.51533   1.53388   1.56078   1.57568   1.59589
 Alpha virt. eigenvalues --    1.62044   1.63545   1.67559   1.70097   1.71538
 Alpha virt. eigenvalues --    1.74004   1.74801   1.76393   1.77583   1.78316
 Alpha virt. eigenvalues --    1.79349   1.81718   1.82071   1.83361   1.83691
 Alpha virt. eigenvalues --    1.87139   1.87742   1.88775   1.90751   1.91416
 Alpha virt. eigenvalues --    1.93263   1.93705   1.95266   1.97217   1.99559
 Alpha virt. eigenvalues --    2.00621   2.01971   2.04629   2.05585   2.06709
 Alpha virt. eigenvalues --    2.09980   2.11459   2.12512   2.15234   2.15667
 Alpha virt. eigenvalues --    2.18887   2.20423   2.22206   2.24237   2.25245
 Alpha virt. eigenvalues --    2.25821   2.27371   2.29082   2.30694   2.34130
 Alpha virt. eigenvalues --    2.36160   2.37215   2.38163   2.39422   2.41629
 Alpha virt. eigenvalues --    2.43511   2.48817   2.53031   2.55311   2.56826
 Alpha virt. eigenvalues --    2.60154   2.62842   2.63529   2.67810   2.71574
 Alpha virt. eigenvalues --    2.72058   2.74100   2.74938   2.76087   2.81071
 Alpha virt. eigenvalues --    2.83274   2.88980   2.91442   2.99588   3.07690
 Alpha virt. eigenvalues --    3.11759   3.15566   3.58775   3.97509   3.99665
 Alpha virt. eigenvalues --    4.07979   4.14882   4.18756   4.24871   4.31431
 Alpha virt. eigenvalues --    4.33244   4.36860   4.38611   4.48427   4.52966
 Alpha virt. eigenvalues --    4.68601   4.74119
          Condensed to atoms (all electrons):
               1          2          3          4          5          6
     1  C    5.095070   0.371642  -0.046536  -0.001438  -0.002833  -0.000053
     2  C    0.371642   4.970749   0.377991  -0.034996  -0.005222   0.004055
     3  C   -0.046536   0.377991   5.091413   0.381954  -0.058490  -0.054455
     4  C   -0.001438  -0.034996   0.381954   4.757839   0.378410   0.382316
     5  C   -0.002833  -0.005222  -0.058490   0.378410   5.167051  -0.063888
     6  C   -0.000053   0.004055  -0.054455   0.382316  -0.063888   5.190266
     7  C   -0.002063  -0.002164  -0.042816   0.351653  -0.048972  -0.063969
     8  C    0.000139   0.000010  -0.004110  -0.021535   0.003746  -0.002253
     9  O    0.000003   0.000004  -0.000003   0.002144  -0.000052  -0.000015
    10  C    0.000239  -0.000004  -0.000009  -0.000107  -0.000003   0.000004
    11  O   -0.000025   0.000003   0.000000  -0.000005   0.000000  -0.000000
    12  O   -0.000930  -0.000005  -0.000103   0.000033   0.000000  -0.000002
    13  O    0.000015  -0.000005   0.000125  -0.000013   0.000000   0.000030
    14  O   -0.000082   0.000037  -0.006375  -0.000823   0.000022  -0.003019
    15  C   -0.000003  -0.000002  -0.000086  -0.000722  -0.000145  -0.001805
    16  H    0.375423  -0.035432  -0.003205   0.002835  -0.000151  -0.000015
    17  H    0.370095  -0.029746   0.004555  -0.000054   0.000021   0.000002
    18  H    0.375126  -0.037761  -0.004437  -0.001302   0.000216  -0.000014
    19  H   -0.041249   0.375761  -0.037294  -0.008806   0.005709   0.000077
    20  H   -0.042370   0.376290  -0.032808   0.004909   0.000094  -0.000160
    21  H    0.005761  -0.037775   0.359436  -0.036647  -0.003905  -0.008442
    22  H   -0.006098  -0.037104   0.366052  -0.033803   0.005271  -0.001775
    23  H    0.000221  -0.001256  -0.003571  -0.028070   0.368825  -0.005054
    24  H    0.000009   0.000239   0.005484  -0.028071   0.364726  -0.006330
    25  H   -0.000095   0.001981  -0.005985  -0.028120   0.366015   0.005878
    26  H   -0.000001   0.000019  -0.004456  -0.028570   0.005951   0.365303
    27  H    0.000005  -0.000145   0.005397  -0.030241  -0.005302   0.362445
    28  H    0.000004   0.000045  -0.006350  -0.026106  -0.006556   0.364569
    29  H    0.004122  -0.000320  -0.006780  -0.027258  -0.004079   0.005658
    30  H    0.000003  -0.000073   0.005063  -0.031376  -0.006159  -0.004722
    31  H   -0.000000   0.000000   0.000004  -0.000022   0.000003   0.000004
    32  H    0.000000  -0.000000  -0.000001   0.000232  -0.000008  -0.000059
    33  H   -0.000000  -0.000000   0.000033  -0.000980   0.000008   0.002636
               7          8          9         10         11         12
     1  C   -0.002063   0.000139   0.000003   0.000239  -0.000025  -0.000930
     2  C   -0.002164   0.000010   0.000004  -0.000004   0.000003  -0.000005
     3  C   -0.042816  -0.004110  -0.000003  -0.000009   0.000000  -0.000103
     4  C    0.351653  -0.021535   0.002144  -0.000107  -0.000005   0.000033
     5  C   -0.048972   0.003746  -0.000052  -0.000003   0.000000   0.000000
     6  C   -0.063969  -0.002253  -0.000015   0.000004  -0.000000  -0.000002
     7  C    5.259313   0.349630  -0.046737  -0.001849   0.000088  -0.000537
     8  C    0.349630   4.634725   0.162922  -0.002038   0.000998   0.000980
     9  O   -0.046737   0.162922   8.315171   0.255401  -0.071145  -0.067658
    10  C   -0.001849  -0.002038   0.255401   4.172789   0.599116   0.178884
    11  O    0.000088   0.000998  -0.071145   0.599116   7.968622  -0.059045
    12  O   -0.000537   0.000980  -0.067658   0.178884  -0.059045   8.186811
    13  O    0.002497  -0.023373  -0.014229  -0.012129   0.001138   0.016435
    14  O   -0.045294   0.127712  -0.019812  -0.005126  -0.000096  -0.033286
    15  C   -0.079484   0.385169  -0.057040   0.001121  -0.000141  -0.000156
    16  H   -0.004524   0.000098  -0.000034  -0.000028   0.000005  -0.000003
    17  H    0.000193  -0.000003  -0.000000  -0.000008   0.000000   0.000008
    18  H   -0.000358   0.000179  -0.000161   0.001560  -0.000063   0.004133
    19  H   -0.000159  -0.000003   0.000000   0.000000  -0.000000  -0.000000
    20  H   -0.000131  -0.000001  -0.000000   0.000000  -0.000000  -0.000001
    21  H    0.005411   0.000093   0.000001   0.000000  -0.000000   0.000000
    22  H   -0.007191   0.000102  -0.000048   0.000076  -0.000001   0.000479
    23  H    0.004702  -0.000099   0.000000   0.000000  -0.000000  -0.000000
    24  H   -0.006274  -0.000033  -0.000000   0.000000  -0.000000   0.000000
    25  H   -0.004406   0.000008  -0.000001  -0.000001  -0.000000   0.000000
    26  H   -0.004977   0.002322   0.000020   0.000003   0.000000   0.000005
    27  H   -0.002873  -0.001502  -0.000003  -0.000000   0.000000   0.000000
    28  H    0.005583   0.000022   0.000000  -0.000000   0.000000   0.000000
    29  H    0.348352  -0.030281  -0.002512   0.004673  -0.000190  -0.000427
    30  H    0.354433  -0.030728   0.001379  -0.000056   0.000010   0.000003
    31  H    0.005037  -0.021287  -0.000450   0.000154  -0.000004  -0.000051
    32  H   -0.002671  -0.020425   0.000458  -0.000031  -0.000000   0.000019
    33  H   -0.001386  -0.021568   0.002994  -0.000034   0.000001   0.000007
              13         14         15         16         17         18
     1  C    0.000015  -0.000082  -0.000003   0.375423   0.370095   0.375126
     2  C   -0.000005   0.000037  -0.000002  -0.035432  -0.029746  -0.037761
     3  C    0.000125  -0.006375  -0.000086  -0.003205   0.004555  -0.004437
     4  C   -0.000013  -0.000823  -0.000722   0.002835  -0.000054  -0.001302
     5  C    0.000000   0.000022  -0.000145  -0.000151   0.000021   0.000216
     6  C    0.000030  -0.003019  -0.001805  -0.000015   0.000002  -0.000014
     7  C    0.002497  -0.045294  -0.079484  -0.004524   0.000193  -0.000358
     8  C   -0.023373   0.127712   0.385169   0.000098  -0.000003   0.000179
     9  O   -0.014229  -0.019812  -0.057040  -0.000034  -0.000000  -0.000161
    10  C   -0.012129  -0.005126   0.001121  -0.000028  -0.000008   0.001560
    11  O    0.001138  -0.000096  -0.000141   0.000005   0.000000  -0.000063
    12  O    0.016435  -0.033286  -0.000156  -0.000003   0.000008   0.004133
    13  O    8.031768   0.041941   0.001296  -0.000000  -0.000000  -0.000118
    14  O    0.041941   8.242909  -0.056790   0.000002   0.000000   0.000327
    15  C    0.001296  -0.056790   5.207059  -0.000002   0.000000   0.000007
    16  H   -0.000000   0.000002  -0.000002   0.573834  -0.030373  -0.033542
    17  H   -0.000000   0.000000   0.000000  -0.030373   0.575734  -0.028276
    18  H   -0.000118   0.000327   0.000007  -0.033542  -0.028276   0.567349
    19  H    0.000000  -0.000005  -0.000000  -0.007301  -0.000812   0.005366
    20  H    0.000000  -0.000002  -0.000000   0.005775  -0.007124  -0.002722
    21  H   -0.000001   0.000223   0.000005  -0.000123  -0.000198   0.000047
    22  H   -0.000224   0.009649   0.000253  -0.000173   0.000028   0.005250
    23  H   -0.000000   0.000001   0.000002  -0.000039  -0.000004  -0.000004
    24  H   -0.000000   0.000001  -0.000016  -0.000042   0.000000   0.000000
    25  H   -0.000000  -0.000000   0.000002   0.003275  -0.000015  -0.000074
    26  H    0.000012   0.004233  -0.002671  -0.000000  -0.000000   0.000000
    27  H   -0.000002   0.000105  -0.000644   0.000001  -0.000000   0.000000
    28  H   -0.000000   0.000044   0.000180  -0.000000  -0.000000  -0.000000
    29  H   -0.000039   0.000641   0.005646   0.005665  -0.000012   0.000661
    30  H   -0.000067   0.002788  -0.006093   0.000204  -0.000004   0.000036
    31  H    0.002680  -0.001938   0.355273   0.000000  -0.000000   0.000000
    32  H   -0.000122   0.003604   0.354539   0.000000  -0.000000  -0.000000
    33  H    0.000103  -0.001296   0.360339   0.000000   0.000000  -0.000000
              19         20         21         22         23         24
     1  C   -0.041249  -0.042370   0.005761  -0.006098   0.000221   0.000009
     2  C    0.375761   0.376290  -0.037775  -0.037104  -0.001256   0.000239
     3  C   -0.037294  -0.032808   0.359436   0.366052  -0.003571   0.005484
     4  C   -0.008806   0.004909  -0.036647  -0.033803  -0.028070  -0.028071
     5  C    0.005709   0.000094  -0.003905   0.005271   0.368825   0.364726
     6  C    0.000077  -0.000160  -0.008442  -0.001775  -0.005054  -0.006330
     7  C   -0.000159  -0.000131   0.005411  -0.007191   0.004702  -0.006274
     8  C   -0.000003  -0.000001   0.000093   0.000102  -0.000099  -0.000033
     9  O    0.000000  -0.000000   0.000001  -0.000048   0.000000  -0.000000
    10  C    0.000000   0.000000   0.000000   0.000076   0.000000   0.000000
    11  O   -0.000000  -0.000000  -0.000000  -0.000001  -0.000000  -0.000000
    12  O   -0.000000  -0.000001   0.000000   0.000479  -0.000000   0.000000
    13  O    0.000000   0.000000  -0.000001  -0.000224  -0.000000  -0.000000
    14  O   -0.000005  -0.000002   0.000223   0.009649   0.000001   0.000001
    15  C   -0.000000  -0.000000   0.000005   0.000253   0.000002  -0.000016
    16  H   -0.007301   0.005775  -0.000123  -0.000173  -0.000039  -0.000042
    17  H   -0.000812  -0.007124  -0.000198   0.000028  -0.000004   0.000000
    18  H    0.005366  -0.002722   0.000047   0.005250  -0.000004   0.000000
    19  H    0.610229  -0.038658  -0.003655   0.005430   0.001204  -0.000064
    20  H   -0.038658   0.609723  -0.004526  -0.003834  -0.000041  -0.000003
    21  H   -0.003655  -0.004526   0.623057  -0.034135   0.003094  -0.000126
    22  H    0.005430  -0.003834  -0.034135   0.571614   0.000004  -0.000149
    23  H    0.001204  -0.000041   0.003094   0.000004   0.566093  -0.030136
    24  H   -0.000064  -0.000003  -0.000126  -0.000149  -0.030136   0.582364
    25  H   -0.000097   0.000033  -0.000083  -0.000071  -0.029223  -0.031710
    26  H    0.000003  -0.000003  -0.000011   0.002736  -0.000059   0.000013
    27  H   -0.000003   0.000003   0.000256  -0.000165  -0.000061   0.004523
    28  H   -0.000009  -0.000005   0.005607  -0.000160   0.004426  -0.000173
    29  H   -0.000022  -0.000017   0.000043   0.000319  -0.000075  -0.000169
    30  H   -0.000001   0.000004  -0.000157   0.000001   0.000077   0.005495
    31  H   -0.000000   0.000000  -0.000000   0.000001  -0.000000   0.000000
    32  H    0.000000   0.000000  -0.000000  -0.000006   0.000000  -0.000005
    33  H   -0.000000   0.000000  -0.000001  -0.000018   0.000000  -0.000001
              25         26         27         28         29         30
     1  C   -0.000095  -0.000001   0.000005   0.000004   0.004122   0.000003
     2  C    0.001981   0.000019  -0.000145   0.000045  -0.000320  -0.000073
     3  C   -0.005985  -0.004456   0.005397  -0.006350  -0.006780   0.005063
     4  C   -0.028120  -0.028570  -0.030241  -0.026106  -0.027258  -0.031376
     5  C    0.366015   0.005951  -0.005302  -0.006556  -0.004079  -0.006159
     6  C    0.005878   0.365303   0.362445   0.364569   0.005658  -0.004722
     7  C   -0.004406  -0.004977  -0.002873   0.005583   0.348352   0.354433
     8  C    0.000008   0.002322  -0.001502   0.000022  -0.030281  -0.030728
     9  O   -0.000001   0.000020  -0.000003   0.000000  -0.002512   0.001379
    10  C   -0.000001   0.000003  -0.000000  -0.000000   0.004673  -0.000056
    11  O   -0.000000   0.000000   0.000000   0.000000  -0.000190   0.000010
    12  O    0.000000   0.000005   0.000000   0.000000  -0.000427   0.000003
    13  O   -0.000000   0.000012  -0.000002  -0.000000  -0.000039  -0.000067
    14  O   -0.000000   0.004233   0.000105   0.000044   0.000641   0.002788
    15  C    0.000002  -0.002671  -0.000644   0.000180   0.005646  -0.006093
    16  H    0.003275  -0.000000   0.000001  -0.000000   0.005665   0.000204
    17  H   -0.000015  -0.000000  -0.000000  -0.000000  -0.000012  -0.000004
    18  H   -0.000074   0.000000   0.000000  -0.000000   0.000661   0.000036
    19  H   -0.000097   0.000003  -0.000003  -0.000009  -0.000022  -0.000001
    20  H    0.000033  -0.000003   0.000003  -0.000005  -0.000017   0.000004
    21  H   -0.000083  -0.000011   0.000256   0.005607   0.000043  -0.000157
    22  H   -0.000071   0.002736  -0.000165  -0.000160   0.000319   0.000001
    23  H   -0.029223  -0.000059  -0.000061   0.004426  -0.000075   0.000077
    24  H   -0.031710   0.000013   0.004523  -0.000173  -0.000169   0.005495
    25  H    0.569937  -0.000202  -0.000058   0.000047   0.002997  -0.000148
    26  H   -0.000202   0.564297  -0.033327  -0.028817  -0.000105  -0.000221
    27  H   -0.000058  -0.033327   0.587941  -0.029945  -0.000029   0.002972
    28  H    0.000047  -0.028817  -0.029945   0.571463  -0.000153  -0.000070
    29  H    0.002997  -0.000105  -0.000029  -0.000153   0.560195  -0.034867
    30  H   -0.000148  -0.000221   0.002972  -0.000070  -0.034867   0.584972
    31  H   -0.000000   0.000117   0.000066  -0.000003  -0.000210   0.000256
    32  H   -0.000001   0.000055   0.000164  -0.000003  -0.000050   0.002580
    33  H   -0.000001   0.002769   0.002216  -0.000022  -0.000010   0.000306
              31         32         33
     1  C   -0.000000   0.000000  -0.000000
     2  C    0.000000  -0.000000  -0.000000
     3  C    0.000004  -0.000001   0.000033
     4  C   -0.000022   0.000232  -0.000980
     5  C    0.000003  -0.000008   0.000008
     6  C    0.000004  -0.000059   0.002636
     7  C    0.005037  -0.002671  -0.001386
     8  C   -0.021287  -0.020425  -0.021568
     9  O   -0.000450   0.000458   0.002994
    10  C    0.000154  -0.000031  -0.000034
    11  O   -0.000004  -0.000000   0.000001
    12  O   -0.000051   0.000019   0.000007
    13  O    0.002680  -0.000122   0.000103
    14  O   -0.001938   0.003604  -0.001296
    15  C    0.355273   0.354539   0.360339
    16  H    0.000000   0.000000   0.000000
    17  H   -0.000000  -0.000000   0.000000
    18  H    0.000000  -0.000000  -0.000000
    19  H   -0.000000   0.000000  -0.000000
    20  H    0.000000   0.000000   0.000000
    21  H   -0.000000  -0.000000  -0.000001
    22  H    0.000001  -0.000006  -0.000018
    23  H   -0.000000   0.000000   0.000000
    24  H    0.000000  -0.000005  -0.000001
    25  H   -0.000000  -0.000001  -0.000001
    26  H    0.000117   0.000055   0.002769
    27  H    0.000066   0.000164   0.002216
    28  H   -0.000003  -0.000003  -0.000022
    29  H   -0.000210  -0.000050  -0.000010
    30  H    0.000256   0.002580   0.000306
    31  H    0.541906  -0.026251  -0.025150
    32  H   -0.026251   0.547412  -0.025223
    33  H   -0.025150  -0.025223   0.529143
 Mulliken charges:
               1
     1  C   -0.454101
     2  C   -0.256815
     3  C   -0.279636
     4  C    0.106743
     5  C   -0.460303
     6  C   -0.467210
     7  C   -0.318058
     8  C    0.510384
     9  O   -0.460598
    10  C    0.807404
    11  O   -0.439266
    12  O   -0.225594
    13  O   -0.047720
    14  O   -0.260296
    15  C   -0.465090
    16  H    0.147872
    17  H    0.145992
    18  H    0.148575
    19  H    0.134360
    20  H    0.135576
    21  H    0.126750
    22  H    0.157687
    23  H    0.149042
    24  H    0.140448
    25  H    0.150120
    26  H    0.155560
    27  H    0.138207
    28  H    0.146381
    29  H    0.168632
    30  H    0.154158
    31  H    0.169865
    32  H    0.165793
    33  H    0.175136
 Sum of Mulliken charges =   0.00000
 Mulliken charges with hydrogens summed into heavy atoms:
               1
     1  C   -0.011662
     2  C    0.013122
     3  C    0.004801
     4  C    0.106743
     5  C   -0.020693
     6  C   -0.027062
     7  C    0.004732
     8  C    0.510384
     9  O   -0.460598
    10  C    0.807404
    11  O   -0.439266
    12  O   -0.225594
    13  O   -0.047720
    14  O   -0.260296
    15  C    0.045704
 Electronic spatial extent (au):  <R**2>=           3209.1563
 Charge=              0.0000 electrons
 Dipole moment (field-independent basis, Debye):
    X=              2.9608    Y=             -2.5793    Z=              0.1001  Tot=              3.9280
 Quadrupole moment (field-independent basis, Debye-Ang):
   XX=            -96.3977   YY=            -90.1728   ZZ=            -94.6003
   XY=              6.1387   XZ=             -3.6347   YZ=              3.2793
 Traceless Quadrupole moment (field-independent basis, Debye-Ang):
   XX=             -2.6741   YY=              3.5508   ZZ=             -0.8767
   XY=              6.1387   XZ=             -3.6347   YZ=              3.2793
 Octapole moment (field-independent basis, Debye-Ang**2):
  XXX=            -14.7402  YYY=            -10.3864  ZZZ=              6.7993  XYY=             -3.5339
  XXY=            -16.4425  XXZ=             15.8927  XZZ=             -1.4432  YZZ=             -3.2642
  YYZ=              4.4846  XYZ=             -6.4619
 Hexadecapole moment (field-independent basis, Debye-Ang**3):
 XXXX=          -2267.8068 YYYY=          -1322.2268 ZZZZ=           -550.9386 XXXY=             32.1065
 XXXZ=            -35.2045 YYYX=             20.7269 YYYZ=              7.4160 ZZZX=            -12.7503
 ZZZY=              3.4674 XXYY=           -626.1499 XXZZ=           -492.3878 YYZZ=           -315.7648
 XXYZ=             15.9908 YYXZ=            -14.3474 ZZXY=              5.9187
 N-N= 1.164621743301D+03 E-N=-4.120341033346D+03  KE= 7.608700706002D+02
 Calling FoFJK, ICntrl=      2127 FMM=F ISym2X=0 I1Cent= 0 IOpClX= 0 NMat=1 NMatS=1 NMatT=0.
 ***** Axes restored to original set *****
 -------------------------------------------------------------------
 Center     Atomic                   Forces (Hartrees/Bohr)
 Number     Number              X              Y              Z
 -------------------------------------------------------------------
      1        6           0.002364789   -0.004071670    0.004731900
      2        6           0.000631182    0.002094594   -0.002524141
      3        6           0.004205246    0.003321817   -0.001161584
      4        6           0.001242354    0.006213847   -0.002486937
      5        6          -0.001933407   -0.004633560    0.000277985
      6        6           0.000114005    0.000292842   -0.001812655
      7        6           0.009446183   -0.003520948    0.006931396
      8        6          -0.031433573    0.029740609    0.024662492
      9        8           0.021008204   -0.005683773   -0.013802412
     10        6          -0.015956246   -0.033653705    0.040144268
     11        8           0.004746211    0.037373362   -0.029705162
     12        8           0.001544372    0.002406178    0.007972277
     13        8          -0.003119892    0.011290930   -0.019005920
     14        8           0.017065824   -0.027803311   -0.002825152
     15        6          -0.010334694   -0.006218604   -0.005138296
     16        1          -0.002731480   -0.002492166   -0.000015668
     17        1          -0.000472464   -0.001939353    0.000270402
     18        1          -0.001354296   -0.001558588   -0.000380924
     19        1          -0.000220357    0.000954704    0.000764638
     20        1          -0.000537708    0.002394115   -0.001059868
     21        1          -0.003533157    0.001667323    0.000944083
     22        1          -0.003543941   -0.000846364    0.000549304
     23        1           0.000337973   -0.000962942   -0.001432646
     24        1          -0.000680524    0.000008075   -0.001055673
     25        1           0.000971353   -0.000089965    0.000324525
     26        1          -0.000499163   -0.000691333   -0.000843865
     27        1          -0.000892326   -0.000403567   -0.000107950
     28        1           0.000948808   -0.001539706    0.001092295
     29        1           0.002416189   -0.001293447   -0.004021338
     30        1          -0.000830669    0.001895806   -0.006104122
     31        1           0.003284423   -0.001933989    0.000136829
     32        1           0.003185308    0.000508684    0.000947041
     33        1           0.004561474   -0.000825898    0.003734879
 -------------------------------------------------------------------
 Cartesian Forces:  Max     0.040144268 RMS     0.010430066

 GradGradGradGradGradGradGradGradGradGradGradGradGradGradGradGradGradGrad
 Berny optimization.
 FormGI is forming the generalized inverse of G from B-inverse, IUseBI=4.
 Internal  Forces:  Max     0.047202794 RMS     0.005043156
 Search for a local minimum.
 Step number   1 out of a maximum of  188
 All quantities printed in internal units (Hartrees-Bohrs-Radians)
 Mixed Optimization -- RFO/linear search
 Second derivative matrix not updated -- first step.
 ITU=  0
     Eigenvalues ---    0.00230   0.00230   0.00230   0.00230   0.00230
     Eigenvalues ---    0.00275   0.00348   0.00533   0.01389   0.02109
     Eigenvalues ---    0.02160   0.02560   0.02758   0.03203   0.04075
     Eigenvalues ---    0.04500   0.04591   0.04602   0.04786   0.04807
     Eigenvalues ---    0.05232   0.05279   0.05318   0.05413   0.05414
     Eigenvalues ---    0.05434   0.05499   0.05524   0.05632   0.05791
     Eigenvalues ---    0.07540   0.08939   0.09411   0.09508   0.09890
     Eigenvalues ---    0.12653   0.13041   0.13253   0.14080   0.14630
     Eigenvalues ---    0.15435   0.16000   0.16000   0.16000   0.16000
     Eigenvalues ---    0.16000   0.16000   0.16000   0.16000   0.16000
     Eigenvalues ---    0.16000   0.16000   0.16000   0.18479   0.20847
     Eigenvalues ---    0.21946   0.21947   0.21986   0.24382   0.25000
     Eigenvalues ---    0.26654   0.26707   0.27360   0.27927   0.28239
     Eigenvalues ---    0.28774   0.29275   0.30601   0.33637   0.33693
     Eigenvalues ---    0.33891   0.34016   0.34050   0.34088   0.34129
     Eigenvalues ---    0.34187   0.34189   0.34197   0.34209   0.34260
     Eigenvalues ---    0.34345   0.34390   0.34417   0.34435   0.34521
     Eigenvalues ---    0.34575   0.35645   0.37836   0.38867   0.41198
     Eigenvalues ---    0.49739   0.50987   0.93599
 RFO step:  Lambda=-1.59834417D-02 EMin= 2.30000000D-03
 Linear search not attempted -- first point.
 Iteration  1 RMS(Cart)=  0.07631555 RMS(Int)=  0.00148258
 Iteration  2 RMS(Cart)=  0.00311106 RMS(Int)=  0.00056897
 Iteration  3 RMS(Cart)=  0.00000607 RMS(Int)=  0.00056896
 Iteration  4 RMS(Cart)=  0.00000001 RMS(Int)=  0.00056896
 Variable       Old X    -DE/DX   Delta X   Delta X   Delta X     New X
                                 (Linear)    (Quad)   (Total)
    R1        2.86780   0.01111   0.00000   0.03450   0.03450   2.90231
    R2        2.06459   0.00189   0.00000   0.00522   0.00522   2.06982
    R3        2.06979   0.00061   0.00000   0.00170   0.00170   2.07149
    R4        2.06677   0.00158   0.00000   0.00438   0.00438   2.07115
    R5        2.90477   0.00160   0.00000   0.00528   0.00528   2.91005
    R6        2.07013   0.00107   0.00000   0.00299   0.00299   2.07312
    R7        2.07514   0.00008   0.00000   0.00023   0.00023   2.07538
    R8        2.95179  -0.00538   0.00000  -0.01903  -0.01903   2.93276
    R9        2.07851  -0.00030   0.00000  -0.00086  -0.00086   2.07765
   R10        2.06632   0.00035   0.00000   0.00098   0.00098   2.06730
   R11        2.92299  -0.00374   0.00000  -0.01265  -0.01265   2.91034
   R12        2.91619  -0.00081   0.00000  -0.00271  -0.00271   2.91347
   R13        2.95056  -0.00519   0.00000  -0.01835  -0.01835   2.93222
   R14        2.07112  -0.00055   0.00000  -0.00154  -0.00154   2.06958
   R15        2.07181   0.00018   0.00000   0.00050   0.00050   2.07231
   R16        2.06893   0.00057   0.00000   0.00158   0.00158   2.07052
   R17        2.06752   0.00100   0.00000   0.00278   0.00278   2.07030
   R18        2.07015   0.00068   0.00000   0.00190   0.00190   2.07205
   R19        2.07246  -0.00064   0.00000  -0.00179  -0.00179   2.07067
   R20        2.93559  -0.00539   0.00000  -0.01862  -0.01862   2.91696
   R21        2.06602   0.00035   0.00000   0.00098   0.00098   2.06701
   R22        2.07946  -0.00294   0.00000  -0.00835  -0.00835   2.07112
   R23        2.74113  -0.00266   0.00000  -0.00514  -0.00513   2.73600
   R24        2.68004   0.01487   0.00000   0.03711   0.03750   2.71755
   R25        2.89433  -0.00446   0.00000  -0.01446  -0.01446   2.87987
   R26        2.57630  -0.01086   0.00000  -0.02242  -0.02239   2.55392
   R27        2.31317  -0.04720   0.00000  -0.04958  -0.04958   2.26359
   R28        2.58115   0.00364   0.00000   0.00384   0.00343   2.58458
   R29        2.72585   0.00467   0.00000   0.01216   0.01158   2.73743
   R30        2.71572  -0.00738   0.00000  -0.01728  -0.01674   2.69897
   R31        2.07303  -0.00075   0.00000  -0.00211  -0.00211   2.07092
   R32        2.06998  -0.00131   0.00000  -0.00365  -0.00365   2.06633
   R33        2.06370  -0.00116   0.00000  -0.00321  -0.00321   2.06049
    A1        1.94655   0.00276   0.00000   0.01556   0.01544   1.96199
    A2        1.91694   0.00239   0.00000   0.01694   0.01680   1.93374
    A3        1.94465   0.00027   0.00000  -0.00181  -0.00179   1.94286
    A4        1.86312  -0.00160   0.00000  -0.00258  -0.00286   1.86027
    A5        1.90772  -0.00263   0.00000  -0.02100  -0.02096   1.88677
    A6        1.88197  -0.00141   0.00000  -0.00797  -0.00796   1.87401
    A7        2.02452   0.00146   0.00000   0.00658   0.00659   2.03110
    A8        1.91363  -0.00031   0.00000  -0.00021  -0.00019   1.91343
    A9        1.87459   0.00142   0.00000   0.01625   0.01627   1.89087
   A10        1.93127  -0.00094   0.00000  -0.00942  -0.00945   1.92183
   A11        1.86768  -0.00192   0.00000  -0.01277  -0.01287   1.85481
   A12        1.84179   0.00023   0.00000  -0.00045  -0.00057   1.84122
   A13        2.08802  -0.00215   0.00000  -0.01210  -0.01218   2.07584
   A14        1.83579   0.00399   0.00000   0.03683   0.03676   1.87256
   A15        1.88709   0.00152   0.00000   0.00477   0.00429   1.89138
   A16        1.87630  -0.00229   0.00000  -0.01619  -0.01606   1.86024
   A17        1.93097  -0.00126   0.00000  -0.02256  -0.02272   1.90826
   A18        1.82596   0.00075   0.00000   0.01606   0.01561   1.84157
   A19        1.91412   0.00115   0.00000   0.00517   0.00481   1.91893
   A20        1.88389  -0.00092   0.00000   0.00163   0.00155   1.88544
   A21        1.98895  -0.00070   0.00000  -0.01517  -0.01524   1.97370
   A22        1.86170   0.00169   0.00000   0.02216   0.02220   1.88390
   A23        1.87964  -0.00239   0.00000  -0.02178  -0.02193   1.85771
   A24        1.93153   0.00137   0.00000   0.01067   0.01082   1.94236
   A25        1.94113  -0.00215   0.00000  -0.01434  -0.01437   1.92676
   A26        1.93923  -0.00128   0.00000  -0.00583  -0.00587   1.93336
   A27        1.95039   0.00097   0.00000   0.00623   0.00623   1.95662
   A28        1.87456   0.00160   0.00000   0.00775   0.00768   1.88224
   A29        1.88587   0.00025   0.00000  -0.00121  -0.00121   1.88466
   A30        1.86918   0.00077   0.00000   0.00841   0.00841   1.87760
   A31        1.95328   0.00003   0.00000  -0.00004  -0.00005   1.95323
   A32        1.94148   0.00028   0.00000   0.00176   0.00176   1.94324
   A33        1.93833  -0.00273   0.00000  -0.01546  -0.01547   1.92286
   A34        1.89408  -0.00018   0.00000  -0.00108  -0.00108   1.89300
   A35        1.86449   0.00140   0.00000   0.00764   0.00762   1.87211
   A36        1.86836   0.00134   0.00000   0.00797   0.00797   1.87633
   A37        2.12049  -0.00018   0.00000  -0.00854  -0.00866   2.11184
   A38        1.88396   0.00048   0.00000   0.00397   0.00379   1.88775
   A39        1.89520   0.00092   0.00000   0.00497   0.00471   1.89991
   A40        1.87733  -0.00132   0.00000  -0.01323  -0.01322   1.86411
   A41        1.86803  -0.00197   0.00000  -0.01941  -0.01944   1.84859
   A42        1.79140   0.00259   0.00000   0.04151   0.04141   1.83281
   A43        1.86075   0.00024   0.00000  -0.00556  -0.00826   1.85248
   A44        1.94467  -0.00441   0.00000  -0.03617  -0.03870   1.90597
   A45        1.95425   0.00529   0.00000   0.05934   0.05913   2.01338
   A46        1.99884  -0.00663   0.00000  -0.06871  -0.06964   1.92920
   A47        1.82791   0.00101   0.00000   0.00867   0.00943   1.83734
   A48        1.87569   0.00501   0.00000   0.04727   0.04706   1.92274
   A49        2.07562   0.00151   0.00000   0.02780   0.02786   2.10348
   A50        2.12634   0.01037   0.00000   0.04151   0.04129   2.16763
   A51        2.01753  -0.00086   0.00000  -0.00855  -0.00821   2.00932
   A52        2.13927  -0.00949   0.00000  -0.03308  -0.03327   2.10600
   A53        1.86886   0.00996   0.00000   0.03414   0.03462   1.90348
   A54        1.90529  -0.01585   0.00000  -0.08468  -0.08386   1.82143
   A55        1.83087   0.01083   0.00000   0.06461   0.06469   1.89556
   A56        1.91998  -0.00305   0.00000  -0.01095  -0.01100   1.90898
   A57        1.94590  -0.00157   0.00000  -0.01103  -0.01139   1.93452
   A58        1.96678  -0.00611   0.00000  -0.03915  -0.03960   1.92719
   A59        1.86163   0.00363   0.00000   0.02918   0.02922   1.89085
   A60        1.85822   0.00524   0.00000   0.03346   0.03331   1.89153
   A61        1.90637   0.00270   0.00000   0.00423   0.00353   1.90989
    D1       -1.33939   0.00103   0.00000   0.02520   0.02530  -1.31409
    D2        0.86336   0.00065   0.00000   0.01737   0.01745   0.88081
    D3        2.85635   0.00152   0.00000   0.02538   0.02544   2.88179
    D4        2.88188  -0.00022   0.00000   0.00790   0.00786   2.88973
    D5       -1.19855  -0.00061   0.00000   0.00008  -0.00000  -1.19855
    D6        0.79444   0.00026   0.00000   0.00809   0.00799   0.80243
    D7        0.79770  -0.00019   0.00000   0.00792   0.00794   0.80564
    D8        3.00046  -0.00058   0.00000   0.00009   0.00008   3.00054
    D9       -1.28974   0.00029   0.00000   0.00810   0.00807  -1.28166
   D10        1.15744  -0.00059   0.00000  -0.00819  -0.00817   1.14927
   D11       -3.01635  -0.00174   0.00000  -0.00719  -0.00732  -3.02367
   D12       -1.07299   0.00157   0.00000   0.02986   0.03002  -1.04297
   D13       -1.03639  -0.00054   0.00000  -0.00505  -0.00501  -1.04140
   D14        1.07301  -0.00169   0.00000  -0.00405  -0.00416   1.06884
   D15        3.01637   0.00163   0.00000   0.03300   0.03318   3.04955
   D16       -3.03455   0.00073   0.00000   0.00733   0.00728  -3.02727
   D17       -0.92515  -0.00042   0.00000   0.00834   0.00813  -0.91702
   D18        1.01821   0.00290   0.00000   0.04538   0.04548   1.06368
   D19        0.73615  -0.00004   0.00000   0.02905   0.02892   0.76506
   D20        2.75797   0.00207   0.00000   0.05905   0.05893   2.81690
   D21       -1.37225   0.00267   0.00000   0.06369   0.06365  -1.30861
   D22       -1.35290  -0.00200   0.00000   0.00152   0.00150  -1.35140
   D23        0.66892   0.00011   0.00000   0.03151   0.03151   0.70044
   D24        2.82189   0.00071   0.00000   0.03615   0.03623   2.85812
   D25        2.94625  -0.00099   0.00000   0.00289   0.00294   2.94918
   D26       -1.31512   0.00112   0.00000   0.03289   0.03295  -1.28217
   D27        0.83785   0.00172   0.00000   0.03753   0.03766   0.87551
   D28        0.90774   0.00061   0.00000   0.01306   0.01310   0.92084
   D29        2.99503   0.00035   0.00000   0.00942   0.00950   3.00453
   D30       -1.20149   0.00111   0.00000   0.02031   0.02036  -1.18113
   D31       -1.12810   0.00017   0.00000  -0.00372  -0.00385  -1.13195
   D32        0.95919  -0.00009   0.00000  -0.00736  -0.00745   0.95174
   D33        3.04585   0.00067   0.00000   0.00353   0.00342   3.04927
   D34        3.08104  -0.00109   0.00000  -0.01665  -0.01662   3.06442
   D35       -1.11485  -0.00135   0.00000  -0.02029  -0.02022  -1.13507
   D36        0.97181  -0.00059   0.00000  -0.00941  -0.00935   0.96246
   D37        0.98137  -0.00083   0.00000  -0.01106  -0.01105   0.97033
   D38        3.10340  -0.00084   0.00000  -0.01123  -0.01122   3.09217
   D39       -1.10068  -0.00077   0.00000  -0.01024  -0.01024  -1.11091
   D40        3.03723   0.00094   0.00000   0.00742   0.00735   3.04459
   D41       -1.12393   0.00093   0.00000   0.00725   0.00717  -1.11675
   D42        0.95518   0.00100   0.00000   0.00824   0.00816   0.96335
   D43       -1.20608  -0.00021   0.00000  -0.00018  -0.00011  -1.20619
   D44        0.91595  -0.00023   0.00000  -0.00035  -0.00029   0.91566
   D45        2.99506  -0.00016   0.00000   0.00064   0.00070   2.99576
   D46       -1.25157   0.00002   0.00000   0.00218   0.00231  -1.24925
   D47        0.92621  -0.00155   0.00000  -0.01990  -0.01983   0.90638
   D48        2.85624   0.00210   0.00000   0.03234   0.03255   2.88880
   D49        2.90408   0.00073   0.00000   0.02121   0.02106   2.92515
   D50       -1.20133  -0.00084   0.00000  -0.00086  -0.00107  -1.20240
   D51        0.72871   0.00281   0.00000   0.05137   0.05131   0.78001
   D52        0.87530  -0.00066   0.00000   0.00147   0.00146   0.87677
   D53        3.05308  -0.00223   0.00000  -0.02061  -0.02067   3.03240
   D54       -1.30007   0.00142   0.00000   0.03163   0.03171  -1.26837
   D55        2.74250  -0.00494   0.00000  -0.04500  -0.04482   2.69768
   D56        0.55006   0.00607   0.00000   0.06851   0.06762   0.61768
   D57       -1.55126  -0.00093   0.00000  -0.00783  -0.00720  -1.55846
   D58        0.56168  -0.00420   0.00000  -0.03089  -0.03075   0.53093
   D59       -1.63076   0.00681   0.00000   0.08261   0.08169  -1.54907
   D60        2.55110  -0.00018   0.00000   0.00627   0.00688   2.55798
   D61       -1.35285  -0.00568   0.00000  -0.06363  -0.06334  -1.41618
   D62        2.73790   0.00533   0.00000   0.04988   0.04910   2.78700
   D63        0.63658  -0.00167   0.00000  -0.02646  -0.02571   0.61087
   D64       -1.59716   0.00770   0.00000   0.05223   0.05300  -1.54416
   D65        0.56206  -0.00217   0.00000  -0.04393  -0.04153   0.52053
   D66        2.61213   0.00106   0.00000  -0.01718  -0.01574   2.59639
   D67        2.39671   0.00101   0.00000   0.01641   0.01899   2.41569
   D68        0.28306   0.00895   0.00000   0.10198   0.10089   0.38395
   D69       -1.73955   0.00819   0.00000   0.09929   0.10023  -1.63932
   D70       -3.03076  -0.00131   0.00000  -0.01927  -0.01834  -3.04910
   D71       -0.96916   0.00026   0.00000   0.00309   0.00378  -0.96538
   D72        1.18187  -0.00193   0.00000  -0.02887  -0.02784   1.15403
   D73       -1.02117   0.00209   0.00000   0.00758   0.00771  -1.01346
   D74        1.04043   0.00366   0.00000   0.02994   0.02983   1.07026
   D75       -3.09173   0.00147   0.00000  -0.00202  -0.00179  -3.09352
   D76        1.11140  -0.00256   0.00000  -0.04377  -0.04469   1.06671
   D77       -3.11018  -0.00099   0.00000  -0.02141  -0.02258  -3.13276
   D78       -0.95915  -0.00318   0.00000  -0.05338  -0.05420  -1.01335
   D79        2.61802  -0.00226   0.00000  -0.00547  -0.00421   2.61381
   D80       -0.53241   0.00063   0.00000  -0.02080  -0.01843  -0.55084
   D81       -0.32976  -0.00570   0.00000  -0.00242  -0.00286  -0.33262
   D82        2.80293  -0.00268   0.00000  -0.01745  -0.01612   2.78680
   D83        1.24257  -0.00361   0.00000  -0.02303  -0.02419   1.21838
   D84       -1.17825   0.00395   0.00000  -0.04447  -0.04562  -1.22388
         Item               Value     Threshold  Converged?
 Maximum Force            0.047203     0.000450     NO 
 RMS     Force            0.005043     0.000300     NO 
 Maximum Displacement     0.305675     0.001800     NO 
 RMS     Displacement     0.078313     0.001200     NO 
 Predicted change in Energy=-9.020405D-03
 GradGradGradGradGradGradGradGradGradGradGradGradGradGradGradGradGradGrad

                          Input orientation:                          
 ---------------------------------------------------------------------
 Center     Atomic      Atomic             Coordinates (Angstroms)
 Number     Number       Type             X           Y           Z
 ---------------------------------------------------------------------
      1          6           0        5.071868   -2.136289    3.031380
      2          6           0        5.462830   -0.689394    2.696073
[...]
   271    O   13  px     Ryd( 4p)     0.00193       1.12357
   272    O   13  px     Ryd( 3p)     0.00007       1.09717
   273    O   13  px     Ryd( 5p)     0.00002       4.88117
   274    O   13  py     Val( 2p)     0.75069      -0.18581
   275    O   13  py     Ryd( 3p)     0.00080       1.06734
   276    O   13  py     Ryd( 4p)     0.00008       1.20923
   277    O   13  py     Ryd( 5p)     0.00003       4.81099
   278    O   13  pz     Val( 2p)     0.82250      -0.20266
   279    O   13  pz     Ryd( 4p)     0.00126       1.14354
   280    O   13  pz     Ryd( 3p)     0.00017       0.99074
   281    O   13  pz     Ryd( 5p)     0.00004       4.92936
   282    O   13  dxy    Ryd( 3d)     0.00049       3.12199
   283    O   13  dxz    Ryd( 3d)     0.00051       3.19742
   284    O   13  dyz    Ryd( 3d)     0.00041       3.17194
   285    O   13  dx2y2  Ryd( 3d)     0.00058       3.17650
   286    O   13  dz2    Ryd( 3d)     0.00032       3.07007
 
   287    O   14  S      Cor( 1S)     0.99986     -18.87577
   288    O   14  S      Val( 2S)     0.84604      -0.81887
   289    O   14  S      Ryd( 4S)     0.00076       1.83702
   290    O   14  S      Ryd( 3S)     0.00009       1.49405
   291    O   14  S      Ryd( 5S)     0.00000      49.72369
   292    O   14  px     Val( 2p)     0.62036      -0.18200
   293    O   14  px     Ryd( 3p)     0.00131       1.11384
   294    O   14  px     Ryd( 4p)     0.00022       1.33672
   295    O   14  px     Ryd( 5p)     0.00004       5.19337
   296    O   14  py     Val( 2p)     0.91408      -0.22311
   297    O   14  py     Ryd( 3p)     0.00165       0.83931
   298    O   14  py     Ryd( 4p)     0.00026       1.21426
   299    O   14  py     Ryd( 5p)     0.00001       5.15721
   300    O   14  pz     Val( 2p)     0.76252      -0.22073
   301    O   14  pz     Ryd( 3p)     0.00160       0.85738
   302    O   14  pz     Ryd( 4p)     0.00050       1.10908
   303    O   14  pz     Ryd( 5p)     0.00003       5.12437
   304    O   14  dxy    Ryd( 3d)     0.00034       3.03292
   305    O   14  dxz    Ryd( 3d)     0.00045       3.13518
   306    O   14  dyz    Ryd( 3d)     0.00040       3.32649
   307    O   14  dx2y2  Ryd( 3d)     0.00066       3.24231
   308    O   14  dz2    Ryd( 3d)     0.00050       3.37939
 
   309    C   15  S      Cor( 1S)     0.99958      -9.92411
   310    C   15  S      Val( 2S)     0.54255      -0.15544
   311    C   15  S      Ryd( 4S)     0.00039       2.26377
   312    C   15  S      Ryd( 3S)     0.00030       2.04393
   313    C   15  S      Ryd( 5S)     0.00001      21.03510
   314    C   15  px     Val( 2p)     0.61052      -0.00121
   315    C   15  px     Ryd( 4p)     0.00055       0.89779
   316    C   15  px     Ryd( 3p)     0.00103       0.65798
   317    C   15  px     Ryd( 5p)     0.00007       2.48026
   318    C   15  py     Val( 2p)     0.53993      -0.00361
   319    C   15  py     Ryd( 4p)     0.00066       1.09564
   320    C   15  py     Ryd( 3p)     0.00054       0.69570
   321    C   15  py     Ryd( 5p)     0.00009       2.25158
   322    C   15  pz     Val( 2p)     0.60730      -0.00136
   323    C   15  pz     Ryd( 4p)     0.00072       0.73621
   324    C   15  pz     Ryd( 3p)     0.00056       0.68176
   325    C   15  pz     Ryd( 5p)     0.00008       2.71133
   326    C   15  dxy    Ryd( 3d)     0.00025       2.14328
   327    C   15  dxz    Ryd( 3d)     0.00040       2.22180
   328    C   15  dyz    Ryd( 3d)     0.00024       2.13289
   329    C   15  dx2y2  Ryd( 3d)     0.00040       2.51973
   330    C   15  dz2    Ryd( 3d)     0.00037       2.29153
 
   331    H   16  S      Val( 1S)     0.40314       0.15268
   332    H   16  S      Ryd( 2S)     0.00058       0.77358
   333    H   16  S      Ryd( 4S)     0.00039       1.78736
   334    H   16  S      Ryd( 3S)     0.00008       0.93031
   335    H   16  px     Ryd( 2p)     0.00011       2.15946
   336    H   16  py     Ryd( 2p)     0.00009       2.16636
   337    H   16  pz     Ryd( 2p)     0.00010       2.34732
 
   338    H   17  S      Val( 1S)     0.40602       0.14037
   339    H   17  S      Ryd( 2S)     0.00008       0.49245
   340    H   17  S      Ryd( 3S)     0.00035       0.94003
   341    H   17  S      Ryd( 4S)     0.00005       1.94877
   342    H   17  px     Ryd( 2p)     0.00009       1.85856
   343    H   17  py     Ryd( 2p)     0.00015       2.75485
   344    H   17  pz     Ryd( 2p)     0.00007       1.96320
 
   345    H   18  S      Val( 1S)     0.39807       0.15453
   346    H   18  S      Ryd( 2S)     0.00044       0.55029
   347    H   18  S      Ryd( 4S)     0.00027       1.55659
   348    H   18  S      Ryd( 3S)     0.00007       1.36911
   349    H   18  px     Ryd( 2p)     0.00009       2.04122
   350    H   18  py     Ryd( 2p)     0.00008       1.95414
   351    H   18  pz     Ryd( 2p)     0.00012       2.64824
 
   352    H   19  S      Val( 1S)     0.40502       0.14302
   353    H   19  S      Ryd( 2S)     0.00036       0.55440
   354    H   19  S      Ryd( 4S)     0.00046       1.75894
   355    H   19  S      Ryd( 3S)     0.00001       1.02052
   356    H   19  px     Ryd( 2p)     0.00010       2.08758
   357    H   19  py     Ryd( 2p)     0.00008       1.95476
   358    H   19  pz     Ryd( 2p)     0.00014       2.73479
 
   359    H   20  S      Val( 1S)     0.40518       0.14305
   360    H   20  S      Ryd( 2S)     0.00014       0.46849
   361    H   20  S      Ryd( 4S)     0.00043       1.63156
   362    H   20  S      Ryd( 3S)     0.00002       1.17712
   363    H   20  px     Ryd( 2p)     0.00011       2.14254
   364    H   20  py     Ryd( 2p)     0.00012       2.36402
   365    H   20  pz     Ryd( 2p)     0.00010       2.21041
 
   366    H   21  S      Val( 1S)     0.40222       0.14934
   367    H   21  S      Ryd( 2S)     0.00039       0.49943
   368    H   21  S      Ryd( 4S)     0.00042       1.64502
   369    H   21  S      Ryd( 3S)     0.00002       1.22625
   370    H   21  px     Ryd( 2p)     0.00012       2.71725
   371    H   21  py     Ryd( 2p)     0.00008       2.01414
   372    H   21  pz     Ryd( 2p)     0.00008       2.15984
 
   373    H   22  S      Val( 1S)     0.39195       0.16980
   374    H   22  S      Ryd( 2S)     0.00067       0.53523
   375    H   22  S      Ryd( 4S)     0.00028       2.33267
   376    H   22  S      Ryd( 3S)     0.00002       0.82351
   377    H   22  px     Ryd( 2p)     0.00011       2.30810
   378    H   22  py     Ryd( 2p)     0.00007       2.02036
   379    H   22  pz     Ryd( 2p)     0.00011       2.57203
 
   380    H   23  S      Val( 1S)     0.39752       0.14507
   381    H   23  S      Ryd( 2S)     0.00086       0.41435
   382    H   23  S      Ryd( 4S)     0.00030       1.46744
   383    H   23  S      Ryd( 3S)     0.00002       1.31029
   384    H   23  px     Ryd( 2p)     0.00012       2.64898
   385    H   23  py     Ryd( 2p)     0.00007       1.97547
   386    H   23  pz     Ryd( 2p)     0.00007       2.05096
 
   387    H   24  S      Val( 1S)     0.39655       0.14573
   388    H   24  S      Ryd( 2S)     0.00111       0.42738
   389    H   24  S      Ryd( 4S)     0.00031       1.48018
   390    H   24  S      Ryd( 3S)     0.00001       1.28271
   391    H   24  px     Ryd( 2p)     0.00006       1.94323
   392    H   24  py     Ryd( 2p)     0.00011       2.52991
   393    H   24  pz     Ryd( 2p)     0.00009       2.20280
 
   394    H   25  S      Val( 1S)     0.39987       0.14484
   395    H   25  S      Ryd( 2S)     0.00066       0.53576
   396    H   25  S      Ryd( 4S)     0.00031       1.46750
   397    H   25  S      Ryd( 3S)     0.00001       1.26217
   398    H   25  px     Ryd( 2p)     0.00006       1.93525
   399    H   25  py     Ryd( 2p)     0.00011       2.42024
   400    H   25  pz     Ryd( 2p)     0.00011       2.32581
 
   401    H   26  S      Val( 1S)     0.39671       0.14984
   402    H   26  S      Ryd( 2S)     0.00050       0.59355
   403    H   26  S      Ryd( 4S)     0.00027       2.16294
   404    H   26  S      Ryd( 3S)     0.00003       0.79650
   405    H   26  px     Ryd( 2p)     0.00011       2.31649
   406    H   26  py     Ryd( 2p)     0.00006       1.96100
   407    H   26  pz     Ryd( 2p)     0.00011       2.49373
 
   408    H   27  S      Val( 1S)     0.39959       0.14044
   409    H   27  S      Ryd( 2S)     0.00042       0.43537
   410    H   27  S      Ryd( 4S)     0.00028       1.53866
   411    H   27  S      Ryd( 3S)     0.00002       1.28047
   412    H   27  px     Ryd( 2p)     0.00007       1.98388
   413    H   27  py     Ryd( 2p)     0.00011       2.59791
   414    H   27  pz     Ryd( 2p)     0.00010       2.15607
 
   415    H   28  S      Val( 1S)     0.39718       0.14587
   416    H   28  S      Ryd( 2S)     0.00032       0.44522
   417    H   28  S      Ryd( 4S)     0.00033       1.42179
   418    H   28  S      Ryd( 3S)     0.00002       1.41429
   419    H   28  px     Ryd( 2p)     0.00013       2.68173
   420    H   28  py     Ryd( 2p)     0.00007       1.91867
   421    H   28  pz     Ryd( 2p)     0.00008       2.10140
 
   422    H   29  S      Val( 1S)     0.38594       0.15298
   423    H   29  S      Ryd( 2S)     0.00069       0.77862
   424    H   29  S      Ryd( 4S)     0.00043       1.87597
   425    H   29  S      Ryd( 3S)     0.00001       0.89201
   426    H   29  px     Ryd( 2p)     0.00008       2.09299
   427    H   29  py     Ryd( 2p)     0.00010       2.63870
   428    H   29  pz     Ryd( 2p)     0.00010       2.22868
 
   429    H   30  S      Val( 1S)     0.39041       0.14001
   430    H   30  S      Ryd( 2S)     0.00070       0.56492
   431    H   30  S      Ryd( 4S)     0.00042       1.73382
   432    H   30  S      Ryd( 3S)     0.00002       1.06936
   433    H   30  px     Ryd( 2p)     0.00009       2.06431
   434    H   30  py     Ryd( 2p)     0.00009       2.37212
   435    H   30  pz     Ryd( 2p)     0.00013       2.46121
 
   436    H   31  S      Val( 1S)     0.38888       0.14142
   437    H   31  S      Ryd( 4S)     0.00041       1.60766
   438    H   31  S      Ryd( 2S)     0.00024       0.64965
   439    H   31  S      Ryd( 3S)     0.00005       1.21348
   440    H   31  px     Ryd( 2p)     0.00012       2.56372
   441    H   31  py     Ryd( 2p)     0.00008       2.03581
   442    H   31  pz     Ryd( 2p)     0.00009       2.13930
 
   443    H   32  S      Val( 1S)     0.39374       0.12906
   444    H   32  S      Ryd( 2S)     0.00022       0.43852
   445    H   32  S      Ryd( 4S)     0.00027       1.49417
   446    H   32  S      Ryd( 3S)     0.00005       1.29739
   447    H   32  px     Ryd( 2p)     0.00006       1.94239
   448    H   32  py     Ryd( 2p)     0.00008       2.12172
   449    H   32  pz     Ryd( 2p)     0.00013       2.65743
 
   450    H   33  S      Val( 1S)     0.39178       0.13438
   451    H   33  S      Ryd( 2S)     0.00017       0.50456
   452    H   33  S      Ryd( 4S)     0.00023       1.56230
   453    H   33  S      Ryd( 3S)     0.00004       1.21784
   454    H   33  px     Ryd( 2p)     0.00011       2.43834
   455    H   33  py     Ryd( 2p)     0.00008       2.16291
   456    H   33  pz     Ryd( 2p)     0.00008       2.12037

 WARNING:  Population inversion found on atom  C    1
           Population inversion found on atom  C    3
           Population inversion found on atom  C    5
           Population inversion found on atom  C    6
           Population inversion found on atom  C    7
           Population inversion found on atom  C    8
           Population inversion found on atom  O    9
           Population inversion found on atom  C   10
           Population inversion found on atom  O   11
           Population inversion found on atom  O   12
           Population inversion found on atom  O   13
           Population inversion found on atom  O   14
           Population inversion found on atom  C   15
           Population inversion found on atom  H   16
           Population inversion found on atom  H   17
           Population inversion found on atom  H   18
           Population inversion found on atom  H   19
           Population inversion found on atom  H   20
           Population inversion found on atom  H   21
           Population inversion found on atom  H   22
           Population inversion found on atom  H   23
           Population inversion found on atom  H   24
           Population inversion found on atom  H   25
           Population inversion found on atom  H   26
           Population inversion found on atom  H   27
           Population inversion found on atom  H   28
           Population inversion found on atom  H   29
           Population inversion found on atom  H   30
           Population inversion found on atom  H   31
           Population inversion found on atom  H   32
           Population inversion found on atom  H   33


 Summary of Natural Population Analysis:                  
                                                          
                                       Natural Population 
                Natural  -----------------------------------------------
    Atom  No    Charge         Core      Valence    Rydberg      Total
 -----------------------------------------------------------------------
      C    1   -0.28339      0.99966     2.27880    0.00493     3.28339
      C    2   -0.19348      0.99963     2.18605    0.00780     3.19348
      C    3   -0.19059      0.99958     2.18001    0.01099     3.19059
      C    4   -0.04164      0.99957     2.02886    0.01320     3.04164
      C    5   -0.28289      0.99962     2.27537    0.00790     3.28289
      C    6   -0.28806      0.99962     2.28122    0.00721     3.28806
      C    7   -0.20865      0.99951     2.19615    0.01300     3.20865
      C    8    0.29883      0.99954     1.68147    0.02017     2.70117
      O    9   -0.29745      0.99983     3.28845    0.00917     4.29745
      C   10    0.50574      0.99975     1.46689    0.02762     2.49426
      O   11   -0.30211      0.99986     3.29624    0.00601     4.30211
      O   12   -0.11786      0.99988     3.10980    0.00818     4.11786
      O   13    0.02998      0.99995     2.96251    0.00756     3.97002
      O   14   -0.15169      0.99986     3.14300    0.00884     4.15169
      C   15   -0.30654      0.99958     2.30030    0.00666     3.30654
      H   16    0.09551      0.00000     0.40314    0.00135     0.40449
      H   17    0.09320      0.00000     0.40602    0.00078     0.40680
      H   18    0.10086      0.00000     0.39807    0.00107     0.39914
      H   19    0.09384      0.00000     0.40502    0.00114     0.40616
      H   20    0.09390      0.00000     0.40518    0.00092     0.40610
      H   21    0.09666      0.00000     0.40222    0.00112     0.40334
      H   22    0.10679      0.00000     0.39195    0.00127     0.39321
      H   23    0.10104      0.00000     0.39752    0.00144     0.39896
      H   24    0.10177      0.00000     0.39655    0.00168     0.39823
      H   25    0.09888      0.00000     0.39987    0.00126     0.40112
      H   26    0.10220      0.00000     0.39671    0.00109     0.39780
      H   27    0.09942      0.00000     0.39959    0.00099     0.40058
      H   28    0.10187      0.00000     0.39718    0.00095     0.39813
      H   29    0.11264      0.00000     0.38594    0.00142     0.38736
      H   30    0.10814      0.00000     0.39041    0.00145     0.39186
      H   31    0.11013      0.00000     0.38888    0.00099     0.38987
      H   32    0.10546      0.00000     0.39374    0.00080     0.39454
      H   33    0.10749      0.00000     0.39178    0.00073     0.39251
 =======================================================================
   * Total *   -0.00000     14.99543    43.82490    0.17967    59.00000

                                 Natural Population      
 --------------------------------------------------------
   Core                      14.99543 ( 99.9695% of  15)
   Valence                   43.82490 ( 99.6020% of  44)
   Natural Minimal Basis     58.82033 ( 99.6955% of  59)
   Natural Rydberg Basis      0.17967 (  0.3045% of  59)
 --------------------------------------------------------

    Atom  No          Natural Electron Configuration
 ----------------------------------------------------------------------------
      C    1      [core]2S( 0.54)2p( 1.74)
      C    2      [core]2S( 0.51)2p( 1.68)
      C    3      [core]2S( 0.50)2p( 1.68)
      C    4      [core]2S( 0.46)2p( 1.57)3p( 0.01)
      C    5      [core]2S( 0.53)2p( 1.74)
      C    6      [core]2S( 0.53)2p( 1.75)
      C    7      [core]2S( 0.50)2p( 1.69)4p( 0.01)
      C    8      [core]2S( 0.44)2p( 1.24)3p( 0.01)3d( 0.01)
      O    9      [core]2S( 0.81)2p( 2.48)
      C   10      [core]2S( 0.34)2p( 1.13)3d( 0.01)4p( 0.01)
      O   11      [core]2S( 0.85)2p( 2.44)
      O   12      [core]2S( 0.86)2p( 2.25)
      O   13      [core]2S( 0.89)2p( 2.07)
      O   14      [core]2S( 0.85)2p( 2.30)
      C   15      [core]2S( 0.54)2p( 1.76)
      H   16            1S( 0.40)
      H   17            1S( 0.41)
      H   18            1S( 0.40)
      H   19            1S( 0.41)
      H   20            1S( 0.41)
      H   21            1S( 0.40)
      H   22            1S( 0.39)
      H   23            1S( 0.40)
      H   24            1S( 0.40)
      H   25            1S( 0.40)
      H   26            1S( 0.40)
      H   27            1S( 0.40)
      H   28            1S( 0.40)
      H   29            1S( 0.39)
      H   30            1S( 0.39)
      H   31            1S( 0.39)
      H   32            1S( 0.39)
      H   33            1S( 0.39)


 NBO analysis skipped by request.
 1\1\GINC-NODE312\SP\UB3LYP\6-311++G(d,p)\C10H18O5(1-,2)\VSC10255\10-De
 c-2020\0\\# B3LYP/6-311++G(d,p) empiricaldispersion=gd3bj scf=xqc pop=
 npa geom=check\\CID_125121716_JID_5130_Energie_anion\\-1,2\C,0,5.12753
 9704,-2.2533812542,2.4301204803\C,0,5.3309231801,-0.7916752645,2.85291
 5166\C,0,4.5009919862,0.2615895039,2.0889020206\C,0,3.0800085305,0.614
 0695781,2.6108343855\C,0,3.1972569248,1.2551450014,4.0093574127\C,0,2.
 4719302094,1.6589560225,1.6586448364\C,0,2.1527488208,-0.6189549361,2.
 7895603671\C,0,1.5772607934,-1.3464694099,1.5616992398\O,0,1.31023357,
 -2.7229081299,1.9962092354\C,0,1.8333402638,-3.8063998316,1.4117345816
 \O,0,1.821655358,-4.8995300699,1.8985330203\O,0,2.4450375822,-3.641077
 9895,0.1895722842\O,0,2.1328692767,-2.3405624752,-0.3938103375\O,0,2.5
 819970517,-1.3852831602,0.5611181702\C,0,0.2566910532,-0.8028265478,1.
 0425830995\H,0,4.1498977454,-2.650119323,2.7168478659\H,0,5.8816757549
 ,-2.8940121409,2.9006108678\H,0,5.2191969002,-2.3665878145,1.344783933
 7\H,0,5.1717502255,-0.6941478722,3.934640135\H,0,6.3887705638,-0.54705
 13036,2.6942888637\H,0,5.0593011317,1.2073675044,2.1014936925\H,0,4.43
 80746972,-0.03467272,1.0372313272\H,0,3.8916128095,2.1023346573,3.9846
 003257\H,0,2.2245896306,1.6268737737,4.3523617227\H,0,3.5623522203,0.5
 437011997,4.7574370122\H,0,2.4147373562,1.2855998805,0.6313685606\H,0,
 1.4663595755,1.9571244431,1.9790157352\H,0,3.0936526761,2.5612368681,1
 .6464978247\H,0,2.6786132903,-1.3657751448,3.3861978807\H,0,1.28175715
 76,-0.3154998406,3.3817558078\H,0,-0.0623471369,-1.3646266473,0.162881
 8432\H,0,-0.5046059563,-0.9020235853,1.8202314313\H,0,0.360687054,0.25
 11270283,0.780461208\\Version=ES64L-G16RevA.03\State=2-A\HF=-768.13624
 25\S2=0.751947\S2-1=0.\S2A=0.750002\RMSD=9.477e-12\Dipole=-0.0776948,-
 0.3563997,-0.9903855\Quadrupole=12.1611079,-19.4525609,7.291453,-4.634
 9132,0.7664987,-12.0922664\PG=C01 [X(C10H18O5)]\\@


 LIFE CAN ONLY BE UNDERSTOOD BACKWARD, BUT MUST
 BE LIVED FORWARD. -- KIRKEGAARD
 Job cpu time:       0 days  0 hours 54 minutes 18.4 seconds.
 Elapsed time:       0 days  0 hours 14 minutes 30.2 seconds.
 File lengths (MBytes):  RWF=    248 Int=      0 D2E=      0 Chk=     24 Scr=      8
 Normal termination of Gaussian 16 at Thu Dec 10 15:39:59 2020.
