 Entering Gaussian System, Link 0=g16
 Initial command:
 /apps/brussel/CO7/skylake/software/Gaussian/G16.A.03-intel-2017b/g16/l1.exe "/scratch/brussel/102/vsc10255/3549904[6826].master01.hydra.brussel.vsc/Gau-103370.inp" -scrdir="/scratch/brussel/102/vsc10255/3549904[6826].master01.hydra.brussel.vsc/"
 Entering Link 1 = /apps/brussel/CO7/skylake/software/Gaussian/G16.A.03-intel-2017b/g16/l1.exe.bin PID=    103373.
  
 Copyright (c) 1988,1990,1992,1993,1995,1998,2003,2009,2016,
            Gaussian, Inc.  All Rights Reserved.
  
 This is part of the Gaussian(R) 16 program.  It is based on
 the Gaussian(R) 09 system (copyright 2009, Gaussian, Inc.),
 the Gaussian(R) 03 system (copyright 2003, Gaussian, Inc.),
 the Gaussian(R) 98 system (copyright 1998, Gaussian, Inc.),
 the Gaussian(R) 94 system (copyright 1995, Gaussian, Inc.),
 the Gaussian 92(TM) system (copyright 1992, Gaussian, Inc.),
 the Gaussian 90(TM) system (copyright 1990, Gaussian, Inc.),
 the Gaussian 88(TM) system (copyright 1988, Gaussian, Inc.),
 the Gaussian 86(TM) system (copyright 1986, Carnegie Mellon
 University), and the Gaussian 82(TM) system (copyright 1983,
 Carnegie Mellon University). Gaussian is a federally registered
 trademark of Gaussian, Inc.
  
 This software contains proprietary and confidential information,
 including trade secrets, belonging to Gaussian, Inc.
  
 This software is provided under written license and may be
 used, copied, transmitted, or stored only in accord with that
 written license.
  
 The following legend is applicable only to US Government
 contracts under FAR:
  
                    RESTRICTED RIGHTS LEGEND
  
 Use, reproduction and disclosure by the US Government is
 subject to restrictions as set forth in subparagraphs (a)
 and (c) of the Commercial Computer Software - Restricted
 Rights clause in FAR 52.227-19.
  
 Gaussian, Inc.
 340 Quinnipiac St., Bldg. 40, Wallingford CT 06492
  
  
 ---------------------------------------------------------------
 Warning -- This program may not be used in any manner that
 competes with the business of Gaussian, Inc. or will provide
 assistance to any competitor of Gaussian, Inc.  The licensee
 of this program is prohibited from giving any competitor of
 Gaussian, Inc. access to this program.  By using this program,
 the user acknowledges that Gaussian, Inc. is engaged in the
 business of creating and licensing software in the field of
 computational chemistry and represents and warrants to the
 licensee that it is not a competitor of Gaussian, Inc. and that
 it will not use this program in any manner prohibited above.
 ---------------------------------------------------------------
  

 Cite this work as:
 Gaussian 16, Revision A.03,
 M. J. Frisch, G. W. Trucks, H. B. Schlegel, G. E. Scuseria, 
 M. A. Robb, J. R. Cheeseman, G. Scalmani, V. Barone, 
 G. A. Petersson, H. Nakatsuji, X. Li, M. Caricato, A. V. Marenich, 
 J. Bloino, B. G. Janesko, R. Gomperts, B. Mennucci, H. P. Hratchian, 
 J. V. Ortiz, A. F. Izmaylov, J. L. Sonnenberg, D. Williams-Young, 
 F. Ding, F. Lipparini, F. Egidi, J. Goings, B. Peng, A. Petrone, 
 T. Henderson, D. Ranasinghe, V. G. Zakrzewski, J. Gao, N. Rega, 
 G. Zheng, W. Liang, M. Hada, M. Ehara, K. Toyota, R. Fukuda, 
 J. Hasegawa, M. Ishida, T. Nakajima, Y. Honda, O. Kitao, H. Nakai, 
 T. Vreven, K. Throssell, J. A. Montgomery, Jr., J. E. Peralta, 
 F. Ogliaro, M. J. Bearpark, J. J. Heyd, E. N. Brothers, K. N. Kudin, 
 V. N. Staroverov, T. A. Keith, R. Kobayashi, J. Normand, 
 K. Raghavachari, A. P. Rendell, J. C. Burant, S. S. Iyengar, 
 J. Tomasi, M. Cossi, J. M. Millam, M. Klene, C. Adamo, R. Cammi, 
 J. W. Ochterski, R. L. Martin, K. Morokuma, O. Farkas, 
 J. B. Foresman, and D. J. Fox, Gaussian, Inc., Wallingford CT, 2016.
 
 ******************************************
 Gaussian 16:  ES64L-G16RevA.03 25-Dec-2016
                11-Dec-2020 
 ******************************************
 %chk=JID_6826.chk
 %mem=8GB
 %nprocshared=4
 Will use up to    4 processors via shared memory.
 -----------------------------------------------------------
 # opt freq B3LYP/6-31G(d) empiricaldispersion=gd3bj scf=xqc
 -----------------------------------------------------------
 1/18=20,19=15,26=3,38=1/1,3;
 2/9=110,12=2,17=6,18=5,40=1/2;
 3/5=1,6=6,7=1,11=2,25=1,30=1,71=1,74=-5,124=41/1,2,3;
 4//1;
 5/5=2,8=3,13=1,38=5/2,8;
 6/7=2,8=2,9=2,10=2,28=1/1;
 7//1,2,3,16;
 1/18=20,19=15,26=3/3(2);
 2/9=110/2;
 99//99;
 2/9=110/2;
 3/5=1,6=6,7=1,11=2,25=1,30=1,71=1,74=-5,124=41/1,2,3;
 4/5=5,16=3,69=1/1;
 5/5=2,8=3,13=1,38=5/2,8;
 7//1,2,3,16;
 1/18=20,19=15,26=3/3(-5);
 2/9=110/2;
 6/7=2,8=2,9=2,10=2,19=2,28=1/1;
 99/9=1/99;
 -------------------------------
 CID_135170528_JID_6826_neutraal
 -------------------------------
 Symbolic Z-matrix:
 Charge =  0 Multiplicity = 1
 C                     1.01502  -0.01952  -0.09692 
 C                     0.33393   0.79588   1.00588 
 C                     0.96105   2.19258   1.07487 
 C                    -1.15951   0.80907   0.81051 
 C                    -1.94223   1.82924   0.42456 
 C                    -3.3284    1.33193   0.37843 
 O                    -4.27452   1.97917  -0.02991 
 N                    -3.31071   0.03016   0.82376 
 C                    -1.97655  -0.42524   1.06268 
 O                    -1.82218  -1.02018   2.35004 
 C                    -2.0533   -0.2833    3.46274 
 O                    -2.356     0.89716   3.5218 
 C                    -1.88794  -1.07693   4.70907 
 C                    -2.93573  -2.1005    5.08328 
 C                    -1.54851  -2.54872   4.7252 
 C                    -4.44251  -0.86013   0.78856 
 H                     0.82718   0.41166  -1.08678 
 H                     0.65792  -1.05487  -0.10646 
 H                     2.0993   -0.04971   0.05677 
 H                     0.54498   0.31015   1.96722 
 H                     0.85378   2.73384   0.12837 
 H                     0.50026   2.79206   1.86786 
 H                     2.03171   2.12183   1.29685 
 H                    -1.68231   2.84072   0.16943 
 H                    -1.74045  -1.18882   0.31275 
 H                    -1.47968  -0.48682   5.52502 
 H                    -3.23995  -2.15348   6.12238 
 H                    -3.73319  -2.30624   4.37778 
 H                    -1.41159  -3.07435   3.78753 
 H                    -0.90954  -2.90849   5.52436 
 H                    -4.30803  -1.56901  -0.03309 
 H                    -4.50644  -1.40142   1.73597 
 H                    -5.36632  -0.29797   0.62769 
 

 GradGradGradGradGradGradGradGradGradGradGradGradGradGradGradGradGradGrad
 Berny optimization.
 Initialization pass.
                           ----------------------------
                           !    Initial Parameters    !
                           ! (Angstroms and Degrees)  !
 --------------------------                            --------------------------
 ! Name  Definition              Value          Derivative Info.                !
 --------------------------------------------------------------------------------
 ! R1    R(1,2)                  1.5313         estimate D2E/DX2                !
 ! R2    R(1,17)                 1.0959         estimate D2E/DX2                !
 ! R3    R(1,18)                 1.0952         estimate D2E/DX2                !
 ! R4    R(1,19)                 1.0955         estimate D2E/DX2                !
 ! R5    R(2,3)                  1.5326         estimate D2E/DX2                !
 ! R6    R(2,4)                  1.5062         estimate D2E/DX2                !
 ! R7    R(2,20)                 1.0976         estimate D2E/DX2                !
 ! R8    R(3,21)                 1.0956         estimate D2E/DX2                !
 ! R9    R(3,22)                 1.0957         estimate D2E/DX2                !
 ! R10   R(3,23)                 1.0957         estimate D2E/DX2                !
 ! R11   R(4,5)                  1.3425         estimate D2E/DX2                !
 ! R12   R(4,9)                  1.5016         estimate D2E/DX2                !
 ! R13   R(5,6)                  1.4734         estimate D2E/DX2                !
 ! R14   R(5,24)                 1.0751         estimate D2E/DX2                !
 ! R15   R(6,7)                  1.2169         estimate D2E/DX2                !
 ! R16   R(6,8)                  1.3759         estimate D2E/DX2                !
 ! R17   R(8,9)                  1.4298         estimate D2E/DX2                !
 ! R18   R(8,16)                 1.4404         estimate D2E/DX2                !
 ! R19   R(9,10)                 1.4266         estimate D2E/DX2                !
 ! R20   R(9,25)                 1.096          estimate D2E/DX2                !
 ! R21   R(10,11)                1.3544         estimate D2E/DX2                !
 ! R22   R(11,12)                1.2201         estimate D2E/DX2                !
 ! R23   R(11,13)                1.4868         estimate D2E/DX2                !
 ! R24   R(13,14)                1.5118         estimate D2E/DX2                !
 ! R25   R(13,15)                1.5105         estimate D2E/DX2                !
 ! R26   R(13,26)                1.0866         estimate D2E/DX2                !
 ! R27   R(14,15)                1.5012         estimate D2E/DX2                !
 ! R28   R(14,27)                1.084          estimate D2E/DX2                !
 ! R29   R(14,28)                1.0844         estimate D2E/DX2                !
 ! R30   R(15,29)                1.0836         estimate D2E/DX2                !
 ! R31   R(15,30)                1.0846         estimate D2E/DX2                !
 ! R32   R(16,31)                1.0935         estimate D2E/DX2                !
 ! R33   R(16,32)                1.093          estimate D2E/DX2                !
 ! R34   R(16,33)                1.0933         estimate D2E/DX2                !
 ! A1    A(2,1,17)             111.3914         estimate D2E/DX2                !
 ! A2    A(2,1,18)             111.3842         estimate D2E/DX2                !
 ! A3    A(2,1,19)             110.7229         estimate D2E/DX2                !
 ! A4    A(17,1,18)            107.9494         estimate D2E/DX2                !
 ! A5    A(17,1,19)            107.8902         estimate D2E/DX2                !
 ! A6    A(18,1,19)            107.3296         estimate D2E/DX2                !
 ! A7    A(1,2,3)              109.6147         estimate D2E/DX2                !
 ! A8    A(1,2,4)              110.6251         estimate D2E/DX2                !
 ! A9    A(1,2,20)             108.0354         estimate D2E/DX2                !
 ! A10   A(3,2,4)              113.802          estimate D2E/DX2                !
 ! A11   A(3,2,20)             106.571          estimate D2E/DX2                !
 ! A12   A(4,2,20)             107.9473         estimate D2E/DX2                !
 ! A13   A(2,3,21)             111.7944         estimate D2E/DX2                !
 ! A14   A(2,3,22)             111.0456         estimate D2E/DX2                !
 ! A15   A(2,3,23)             110.494          estimate D2E/DX2                !
 ! A16   A(21,3,22)            108.2866         estimate D2E/DX2                !
 ! A17   A(21,3,23)            107.6132         estimate D2E/DX2                !
 ! A18   A(22,3,23)            107.4359         estimate D2E/DX2                !
 ! A19   A(2,4,5)              128.4637         estimate D2E/DX2                !
 ! A20   A(2,4,9)              120.6991         estimate D2E/DX2                !
 ! A21   A(5,4,9)              110.8356         estimate D2E/DX2                !
 ! A22   A(4,5,6)              107.5191         estimate D2E/DX2                !
 ! A23   A(4,5,24)             129.9576         estimate D2E/DX2                !
 ! A24   A(6,5,24)             122.5201         estimate D2E/DX2                !
 ! A25   A(5,6,7)              124.2251         estimate D2E/DX2                !
 ! A26   A(5,6,8)              107.2835         estimate D2E/DX2                !
 ! A27   A(7,6,8)              128.4485         estimate D2E/DX2                !
 ! A28   A(6,8,9)              111.5555         estimate D2E/DX2                !
 ! A29   A(6,8,16)             124.5233         estimate D2E/DX2                !
 ! A30   A(9,8,16)             122.71           estimate D2E/DX2                !
 ! A31   A(4,9,8)              102.5824         estimate D2E/DX2                !
 ! A32   A(4,9,10)             115.8165         estimate D2E/DX2                !
 ! A33   A(4,9,25)             109.912          estimate D2E/DX2                !
 ! A34   A(8,9,10)             112.6181         estimate D2E/DX2                !
 ! A35   A(8,9,25)             107.973          estimate D2E/DX2                !
 ! A36   A(10,9,25)            107.6748         estimate D2E/DX2                !
 ! A37   A(9,10,11)            119.7357         estimate D2E/DX2                !
 ! A38   A(10,11,12)           127.4798         estimate D2E/DX2                !
 ! A39   A(10,11,13)           112.2886         estimate D2E/DX2                !
 ! A40   A(12,11,13)           120.2298         estimate D2E/DX2                !
 ! A41   A(11,13,14)           119.4595         estimate D2E/DX2                !
 ! A42   A(11,13,15)           123.6453         estimate D2E/DX2                !
 ! A43   A(11,13,26)           112.419          estimate D2E/DX2                !
 ! A44   A(14,13,26)           116.2458         estimate D2E/DX2                !
 ! A45   A(15,13,26)           115.8944         estimate D2E/DX2                !
 ! A46   A(13,14,27)           117.7012         estimate D2E/DX2                !
 ! A47   A(13,14,28)           118.4947         estimate D2E/DX2                !
 ! A48   A(15,14,27)           118.2551         estimate D2E/DX2                !
 ! A49   A(15,14,28)           117.8864         estimate D2E/DX2                !
 ! A50   A(27,14,28)           114.0771         estimate D2E/DX2                !
 ! A51   A(13,15,29)           119.4578         estimate D2E/DX2                !
 ! A52   A(13,15,30)           117.6102         estimate D2E/DX2                !
 ! A53   A(14,15,29)           117.9044         estimate D2E/DX2                !
 ! A54   A(14,15,30)           117.8846         estimate D2E/DX2                !
 ! A55   A(29,15,30)           113.7181         estimate D2E/DX2                !
 ! A56   A(8,16,31)            108.8089         estimate D2E/DX2                !
 ! A57   A(8,16,32)            109.3213         estimate D2E/DX2                !
 ! A58   A(8,16,33)            110.47           estimate D2E/DX2                !
 ! A59   A(31,16,32)           109.7222         estimate D2E/DX2                !
 ! A60   A(31,16,33)           109.0678         estimate D2E/DX2                !
 ! A61   A(32,16,33)           109.4361         estimate D2E/DX2                !
 ! D1    D(17,1,2,3)           -65.0335         estimate D2E/DX2                !
 ! D2    D(17,1,2,4)            61.2591         estimate D2E/DX2                !
 ! D3    D(17,1,2,20)          179.216          estimate D2E/DX2                !
 ! D4    D(18,1,2,3)           174.3801         estimate D2E/DX2                !
 ! D5    D(18,1,2,4)           -59.3273         estimate D2E/DX2                !
 ! D6    D(18,1,2,20)           58.6296         estimate D2E/DX2                !
 ! D7    D(19,1,2,3)            55.0289         estimate D2E/DX2                !
 ! D8    D(19,1,2,4)          -178.6785         estimate D2E/DX2                !
 ! D9    D(19,1,2,20)          -60.7216         estimate D2E/DX2                !
 ! D10   D(1,2,3,21)            59.7833         estimate D2E/DX2                !
 ! D11   D(1,2,3,22)          -179.1568         estimate D2E/DX2                !
 ! D12   D(1,2,3,23)           -60.0419         estimate D2E/DX2                !
 ! D13   D(4,2,3,21)           -64.6821         estimate D2E/DX2                !
 ! D14   D(4,2,3,22)            56.3778         estimate D2E/DX2                !
 ! D15   D(4,2,3,23)           175.4927         estimate D2E/DX2                !
 ! D16   D(20,2,3,21)          176.4604         estimate D2E/DX2                !
 ! D17   D(20,2,3,22)          -62.4798         estimate D2E/DX2                !
 ! D18   D(20,2,3,23)           56.6352         estimate D2E/DX2                !
 ! D19   D(1,2,4,5)           -108.9356         estimate D2E/DX2                !
 ! D20   D(1,2,4,9)             71.5572         estimate D2E/DX2                !
 ! D21   D(3,2,4,5)             14.9849         estimate D2E/DX2                !
 ! D22   D(3,2,4,9)           -164.5223         estimate D2E/DX2                !
 ! D23   D(20,2,4,5)           133.0537         estimate D2E/DX2                !
 ! D24   D(20,2,4,9)           -46.4535         estimate D2E/DX2                !
 ! D25   D(2,4,5,6)            179.712          estimate D2E/DX2                !
 ! D26   D(2,4,5,24)             0.361          estimate D2E/DX2                !
 ! D27   D(9,4,5,6)             -0.7413         estimate D2E/DX2                !
 ! D28   D(9,4,5,24)           179.9076         estimate D2E/DX2                !
 ! D29   D(2,4,9,8)            177.4975         estimate D2E/DX2                !
 ! D30   D(2,4,9,10)            54.4235         estimate D2E/DX2                !
 ! D31   D(2,4,9,25)           -67.8498         estimate D2E/DX2                !
 ! D32   D(5,4,9,8)             -2.0897         estimate D2E/DX2                !
 ! D33   D(5,4,9,10)          -125.1636         estimate D2E/DX2                !
 ! D34   D(5,4,9,25)           112.563          estimate D2E/DX2                !
 ! D35   D(4,5,6,7)           -174.3342         estimate D2E/DX2                !
 ! D36   D(4,5,6,8)              3.457          estimate D2E/DX2                !
 ! D37   D(24,5,6,7)             5.0759         estimate D2E/DX2                !
 ! D38   D(24,5,6,8)          -177.1329         estimate D2E/DX2                !
 ! D39   D(5,6,8,9)             -4.972          estimate D2E/DX2                !
 ! D40   D(5,6,8,16)          -172.6459         estimate D2E/DX2                !
 ! D41   D(7,6,8,9)            172.696          estimate D2E/DX2                !
 ! D42   D(7,6,8,16)             5.0221         estimate D2E/DX2                !
 ! D43   D(6,8,9,4)              4.3585         estimate D2E/DX2                !
 ! D44   D(6,8,9,10)           129.5548         estimate D2E/DX2                !
 ! D45   D(6,8,9,25)          -111.6985         estimate D2E/DX2                !
 ! D46   D(16,8,9,4)           172.293          estimate D2E/DX2                !
 ! D47   D(16,8,9,10)          -62.5107         estimate D2E/DX2                !
 ! D48   D(16,8,9,25)           56.236          estimate D2E/DX2                !
 ! D49   D(6,8,16,31)          104.0238         estimate D2E/DX2                !
 ! D50   D(6,8,16,32)         -136.1618         estimate D2E/DX2                !
 ! D51   D(6,8,16,33)          -15.6802         estimate D2E/DX2                !
 ! D52   D(9,8,16,31)          -62.3277         estimate D2E/DX2                !
 ! D53   D(9,8,16,32)           57.4868         estimate D2E/DX2                !
 ! D54   D(9,8,16,33)          177.9683         estimate D2E/DX2                !
 ! D55   D(4,9,10,11)           56.4137         estimate D2E/DX2                !
 ! D56   D(8,9,10,11)          -61.2134         estimate D2E/DX2                !
 ! D57   D(25,9,10,11)         179.8657         estimate D2E/DX2                !
 ! D58   D(9,10,11,12)          -2.3942         estimate D2E/DX2                !
 ! D59   D(9,10,11,13)         178.1002         estimate D2E/DX2                !
 ! D60   D(10,11,13,14)        -73.1698         estimate D2E/DX2                !
 ! D61   D(10,11,13,15)         -2.0127         estimate D2E/DX2                !
 ! D62   D(10,11,13,26)        145.3451         estimate D2E/DX2                !
 ! D63   D(12,11,13,14)        107.2843         estimate D2E/DX2                !
 ! D64   D(12,11,13,15)        178.4414         estimate D2E/DX2                !
 ! D65   D(12,11,13,26)        -34.2009         estimate D2E/DX2                !
 ! D66   D(11,13,14,27)       -137.6565         estimate D2E/DX2                !
 ! D67   D(11,13,14,28)          6.3712         estimate D2E/DX2                !
 ! D68   D(26,13,14,27)          2.4157         estimate D2E/DX2                !
 ! D69   D(26,13,14,28)        146.4435         estimate D2E/DX2                !
 ! D70   D(11,13,15,29)          0.1318         estimate D2E/DX2                !
 ! D71   D(11,13,15,30)        144.8902         estimate D2E/DX2                !
 ! D72   D(26,13,15,29)       -146.2076         estimate D2E/DX2                !
 ! D73   D(26,13,15,30)         -1.4491         estimate D2E/DX2                !
 ! D74   D(27,14,15,29)        142.7526         estimate D2E/DX2                !
 ! D75   D(27,14,15,30)          0.0825         estimate D2E/DX2                !
 ! D76   D(28,14,15,29)         -1.1867         estimate D2E/DX2                !
 ! D77   D(28,14,15,30)       -143.8568         estimate D2E/DX2                !
 --------------------------------------------------------------------------------
 Trust Radius=3.00D-01 FncErr=1.00D-07 GrdErr=1.00D-06 EigMax=2.50D+02 EigMin=1.00D-04
 Number of steps in this run=    182 maximum allowed number of steps=    198.
 GradGradGradGradGradGradGradGradGradGradGradGradGradGradGradGradGradGrad

                          Input orientation:                          
 ---------------------------------------------------------------------
 Center     Atomic      Atomic             Coordinates (Angstroms)
 Number     Number       Type             X           Y           Z
 ---------------------------------------------------------------------
      1          6           0        1.015020   -0.019520   -0.096920
      2          6           0        0.333930    0.795880    1.005880
      3          6           0        0.961050    2.192580    1.074870
      4          6           0       -1.159510    0.809070    0.810510
      5          6           0       -1.942230    1.829240    0.424560
      6          6           0       -3.328400    1.331930    0.378430
      7          8           0       -4.274520    1.979170   -0.029910
      8          7           0       -3.310710    0.030160    0.823760
      9          6           0       -1.976550   -0.425240    1.062680
     10          8           0       -1.822180   -1.020180    2.350040
     11          6           0       -2.053300   -0.283300    3.462740
     12          8           0       -2.356000    0.897160    3.521800
     13          6           0       -1.887940   -1.076930    4.709070
     14          6           0       -2.935730   -2.100500    5.083280
     15          6           0       -1.548510   -2.548720    4.725200
     16          6           0       -4.442510   -0.860130    0.788560
     17          1           0        0.827180    0.411660   -1.086780
     18          1           0        0.657920   -1.054870   -0.106460
     19          1           0        2.099300   -0.049710    0.056770
     20          1           0        0.544980    0.310150    1.967220
     21          1           0        0.853780    2.733840    0.128370
     22          1           0        0.500260    2.792060    1.867860
     23          1           0        2.031710    2.121830    1.296850
     24          1           0       -1.682310    2.840720    0.169430
     25          1           0       -1.740450   -1.188820    0.312750
     26          1           0       -1.479680   -0.486820    5.525020
     27          1           0       -3.239950   -2.153480    6.122380
     28          1           0       -3.733190   -2.306240    4.377780
     29          1           0       -1.411590   -3.074350    3.787530
     30          1           0       -0.909540   -2.908490    5.524360
     31          1           0       -4.308030   -1.569010   -0.033090
     32          1           0       -4.506440   -1.401420    1.735970
     33          1           0       -5.366320   -0.297970    0.627690
 ---------------------------------------------------------------------
                    Distance matrix (angstroms):
                    1          2          3          4          5
     1  C    0.000000
     2  C    1.531316   0.000000
     3  C    2.503875   1.532583   0.000000
     4  C    2.497713   1.506223   2.545734   0.000000
     5  C    3.526355   2.566451   2.997324   1.342518   0.000000
     6  C    4.573584   3.754158   4.430026   2.272479   1.473402
     7  O    5.654952   4.869379   5.355117   3.432015   2.380882
     8  N    4.422902   3.728659   4.794481   2.287911   2.295384
     9  C    3.234002   2.613939   3.934797   1.501554   2.343300
    10  O    3.877968   3.123083   4.437821   2.481016   3.441087
    11  C    4.706947   3.591609   4.573643   3.004406   3.702121
    12  O    5.029832   3.684540   4.320694   2.964868   3.260809
    13  C    5.713391   4.707201   5.658078   4.391626   5.177432
    14  C    6.839106   5.975356   7.048601   5.465997   6.175239
    15  C    6.018420   5.344462   6.488661   5.172125   6.149557
    16  C    5.592435   5.060037   6.212847   3.683042   3.690069
    17  H    1.095912   2.184066   2.803984   2.775713   3.458802
    18  H    1.095245   2.183471   3.468913   2.760101   3.919292
    19  H    1.095534   2.175400   2.712933   3.453327   4.472101
    20  H    2.142497   1.097566   2.124369   2.119478   3.297521
    21  H    2.767263   2.189967   1.095596   2.867646   2.953591
    22  H    3.468475   2.180690   1.095690   2.793756   2.995980
    23  H    2.749842   2.173767   1.095716   3.484788   4.079056
    24  H    3.940495   2.991027   2.868320   2.193606   1.075054
    25  H    3.021210   2.953391   4.394633   2.139351   3.026864
    26  H    6.168315   5.035586   5.739354   4.899841   5.620745
    27  H    7.831874   6.902892   7.874897   6.428133   7.071866
    28  H    6.913576   6.126526   7.292769   5.390213   5.994804
    29  H    5.505395   5.075736   6.381888   4.899708   5.969618
    30  H    6.606729   5.973712   7.022676   6.008587   7.037080
    31  H    5.544353   5.312246   6.568131   4.034861   4.165880
    32  H    5.979603   5.365663   6.576271   4.116392   4.328063
    33  H    6.428382   5.816561   6.814574   4.353873   4.036171
                    6          7          8          9         10
     6  C    0.000000
     7  O    1.216883   0.000000
     8  N    1.375949   2.335877   0.000000
     9  C    2.320203   3.500801   1.429844   0.000000
    10  O    3.418825   4.546893   2.376650   1.426562   0.000000
    11  C    3.707805   4.717117   2.939992   2.405478   1.354441
    12  O    3.318940   4.179247   2.990415   2.817800   2.309584
    13  C    5.160618   6.123189   4.283171   3.705228   2.360629
    14  C    5.837069   6.676884   4.777430   4.460016   3.142879
    15  C    6.092771   7.109430   4.997720   4.255166   2.837731
    16  C    2.492905   2.959686   1.440426   2.518974   3.054499
    17  H    4.501398   5.440717   4.573602   3.630631   4.569574
    18  H    4.671475   5.791392   4.218130   2.950213   3.490916
    19  H    5.610020   6.689503   5.464692   4.214906   4.645310
    20  H    4.309450   5.477384   4.031407   2.777968   2.742221
    21  H    4.417976   5.185946   5.013624   4.343212   5.117543
    22  H    4.359933   5.202004   4.820968   4.139314   4.489922
    23  H    5.495290   6.445865   5.756765   4.754845   5.082706
    24  H    2.242708   2.738897   3.313470   3.398671   4.436347
    25  H    2.979946   4.071251   2.052501   1.095989   2.045891
    26  H    5.763073   6.689506   5.071665   4.490340   3.237634
    27  H    6.719291   7.483302   5.731375   5.493956   4.186286
    28  H    5.421710   6.171346   4.274145   4.196884   3.068817
    29  H    5.891640   6.950344   4.693461   3.842105   2.540586
    30  H    7.093140   8.127867   6.041268   5.216477   3.804594
    31  H    3.089414   3.548340   2.070310   2.818638   3.487115
    32  H    3.271375   3.821061   2.076372   2.794028   2.779870
    33  H    2.621416   2.609565   2.090848   3.419935   4.006121
                   11         12         13         14         15
    11  C    0.000000
    12  O    1.220082   0.000000
    13  C    1.486785   2.350685   0.000000
    14  C    2.589797   3.429325   1.511818   0.000000
    15  C    2.642110   3.738222   1.510509   1.501167   0.000000
    16  C    3.632120   3.861631   4.684360   4.717364   5.169498
    17  H    5.429389   5.622042   6.571123   7.651149   6.941676
    18  H    4.548101   5.104743   5.447129   6.398520   5.517686
    19  H    5.375805   5.722997   6.212661   7.404260   6.430071
    20  H    3.056112   3.343200   3.919290   5.257034   4.490244
    21  H    5.354649   5.019108   6.559101   7.891918   7.403194
    22  H    4.303737   3.805836   5.361442   6.788380   6.394199
    23  H    5.211817   5.069736   6.102374   7.539269   6.810697
    24  H    4.554451   3.933150   5.999883   7.080441   7.058258
    25  H    3.292458   3.876624   4.400216   5.001781   4.621243
    26  H    2.150223   2.587707   1.086591   2.217922   2.212664
    27  H    3.461126   4.104971   2.232563   1.084014   2.229192
    28  H    2.784172   3.590421   2.241853   1.084436   2.225382
    29  H    2.882228   4.090894   2.250740   2.224939   1.083632
    30  H    3.528468   4.537121   2.230824   2.225499   1.084608
    31  H    4.354042   4.746542   5.346687   5.323808   5.587138
    32  H    3.201534   3.618985   3.975067   3.763021   4.359030
    33  H    4.360485   4.343528   5.418816   5.386016   6.035821
                   16         17         18         19         20
    16  C    0.000000
    17  H    5.736199   0.000000
    18  H    5.182024   1.772114   0.000000
    19  H    6.632313   1.771682   1.764814   0.000000
    20  H    5.256791   3.068690   2.485193   2.489022   0.000000
    21  H    6.434529   2.621034   3.801030   3.050344   3.057940
    22  H    6.239740   3.808291   4.326854   3.729964   2.484301
    23  H    7.146046   3.171319   3.734702   2.501590   2.437611
    24  H    4.658145   3.711595   4.552847   4.761077   3.820557
    25  H    2.763252   3.333608   2.438413   4.013325   3.194898
    26  H    5.599266   7.060083   6.050255   6.549956   4.170414
    27  H    5.618589   8.665649   7.429588   8.350153   6.136817
    28  H    3.934065   7.618751   6.399702   7.601381   5.564084
    29  H    4.804484   6.397129   4.850189   5.949232   4.312370
    30  H    6.253436   7.599129   6.131800   6.864421   5.012835
    31  H    1.093483   5.603900   4.993033   6.585607   5.575320
    32  H    1.093009   6.301006   5.494111   6.948571   5.338520
    33  H    1.093311   6.465479   6.115827   7.491533   6.091602
                   21         22         23         24         25
    21  H    0.000000
    22  H    1.776004   0.000000
    23  H    1.768452   1.766522   0.000000
    24  H    2.538673   2.765980   3.947382   0.000000
    25  H    4.706515   4.825614   5.114494   4.032507   0.000000
    26  H    6.703843   5.295851   6.083776   6.308401   5.265792
    27  H    8.750582   7.519872   8.327930   7.925017   6.077077
    28  H    8.031201   7.086216   7.895189   6.957551   4.663058
    29  H    7.228861   6.461816   6.712681   6.939163   3.967048
    30  H    8.003867   6.917644   7.199091   7.894673   5.550545
    31  H    6.721969   6.764037   7.455424   5.136257   2.618514
    32  H    6.958212   6.532206   7.439995   5.331558   3.117925
    33  H    6.937639   6.745596   7.812430   4.861410   3.746963
                   26         27         28         29         30
    26  H    0.000000
    27  H    2.496627   0.000000
    28  H    3.115246   1.819409   0.000000
    29  H    3.117502   3.105226   2.515594   0.000000
    30  H    2.487880   2.521602   3.106501   1.815528   0.000000
    31  H    6.329557   6.274728   4.508849   5.025192   6.650503
    32  H    4.935045   4.627114   2.897546   4.072553   5.436989
    33  H    6.255036   6.177053   4.556691   5.773453   7.117238
                   31         32         33
    31  H    0.000000
    32  H    1.788023   0.000000
    33  H    1.781053   1.784735   0.000000
 Stoichiometry    C12H17NO3
 Framework group  C1[X(C12H17NO3)]
 Deg. of freedom    93
 Full point group                 C1      NOp   1
 Largest Abelian subgroup         C1      NOp   1
 Largest concise Abelian subgroup C1      NOp   1
                         Standard orientation:                         
 ---------------------------------------------------------------------
 Center     Atomic      Atomic             Coordinates (Angstroms)
 Number     Number       Type             X           Y           Z
 ---------------------------------------------------------------------
      1          6           0       -2.242668   -2.248887    1.481070
      2          6           0       -1.675247   -1.836163    0.119960
      3          6           0       -2.585883   -2.358164   -0.996762
      4          6           0       -1.444189   -0.348593    0.070438
      5          6           0       -2.123933    0.579493   -0.621630
      6          6           0       -1.512477    1.887568   -0.328414
      7          8           0       -1.953216    2.952223   -0.719647
      8          7           0       -0.425282    1.657922    0.483069
      9          6           0       -0.327495    0.280205    0.852917
     10          8           0        0.973018   -0.258807    0.622244
     11          6           0        1.475502   -0.286289   -0.635240
     12          8           0        0.924104    0.071746   -1.663040
     13          6           0        2.855120   -0.838781   -0.679252
     14          6           0        4.006173   -0.006628   -0.161379
     15          6           0        3.622252   -1.273040    0.547356
     16          6           0        0.353349    2.691061    1.116461
     17          1           0       -3.209513   -1.769915    1.672952
     18          1           0       -1.563486   -1.976670    2.296037
     19          1           0       -2.389410   -3.333572    1.527121
     20          1           0       -0.705365   -2.333546   -0.008838
     21          1           0       -3.603183   -1.960506   -0.911330
     22          1           0       -2.192973   -2.088260   -1.983327
     23          1           0       -2.652779   -3.451142   -0.957787
     24          1           0       -2.969620    0.470584   -1.276378
     25          1           0       -0.534197    0.202740    1.926447
     26          1           0        3.044071   -1.410052   -1.584032
     27          1           0        4.923180    0.000174   -0.739426
     28          1           0        3.784507    0.935524    0.327717
     29          1           0        3.159302   -1.187612    1.523388
     30          1           0        4.282131   -2.128388    0.450850
     31          1           0        0.086158    2.734448    2.175909
     32          1           0        1.416124    2.457507    1.013360
     33          1           0        0.147753    3.661242    0.656235
 ---------------------------------------------------------------------
 Rotational constants (GHZ):           0.6585368           0.4350139           0.3211043
 Standard basis: 6-31G(d) (6D, 7F)
 There are   274 symmetry adapted cartesian basis functions of A   symmetry.
 There are   274 symmetry adapted basis functions of A   symmetry.
   274 basis functions,   516 primitive gaussians,   274 cartesian basis functions
    60 alpha electrons       60 beta electrons
       nuclear repulsion energy      1168.3518327861 Hartrees.
 NAtoms=   33 NActive=   33 NUniq=   33 SFac= 1.00D+00 NAtFMM=   60 NAOKFM=F Big=F
 Integral buffers will be    131072 words long.
 Raffenetti 2 integral format.
 Two-electron integral symmetry is turned on.
 Nuclear repulsion after empirical dispersion term =     1168.2909479207 Hartrees.
 One-electron integrals computed using PRISM.
 NBasis=   274 RedAO= T EigKep=  1.01D-03  NBF=   274
 NBsUse=   274 1.00D-06 EigRej= -1.00D+00 NBFU=   274
 ExpMin= 1.61D-01 ExpMax= 5.48D+03 ExpMxC= 8.25D+02 IAcc=3 IRadAn=         5 AccDes= 0.00D+00
 Harris functional with IExCor=  402 and IRadAn=       5 diagonalized for initial guess.
 HarFok:  IExCor=  402 AccDes= 0.00D+00 IRadAn=         5 IDoV= 1 UseB2=F ITyADJ=14
 ICtDFT=  3500011 ScaDFX=  1.000000  1.000000  1.000000  1.000000
 FoFCou: FMM=F IPFlag=           0 FMFlag=      100000 FMFlg1=           0
         NFxFlg=           0 DoJE=T BraDBF=F KetDBF=T FulRan=T
         wScrn=  0.000000 ICntrl=       500 IOpCl=  0 I1Cent=   200000004 NGrid=           0
         NMat0=    1 NMatS0=      1 NMatT0=    0 NMatD0=    1 NMtDS0=    0 NMtDT0=    0
 Petite list used in FoFCou.
 Keep R1 ints in memory in canonical form, NReq=720121926.
 Requested convergence on RMS density matrix=1.00D-08 within  32 cycles.
 Requested convergence on MAX density matrix=1.00D-06.
 Requested convergence on             energy=1.00D-06.
 No special actions if energy rises.
 Integral accuracy reduced to 1.0D-05 until final iterations.
 Initial convergence to 1.0D-05 achieved.  Increase integral accuracy.
 SCF Done:  E(RB3LYP) =  -747.972491172     A.U. after   15 cycles
            NFock= 15  Conv=0.53D-08     -V/T= 2.0091
 QCSCF skips out because SCF is already converged.

 **********************************************************************

            Population analysis using the SCF density.

 **********************************************************************

 Orbital symmetries:
       Occupied  (A) (A) (A) (A) (A) (A) (A) (A) (A) (A) (A) (A)
                 (A) (A) (A) (A) (A) (A) (A) (A) (A) (A) (A) (A)
                 (A) (A) (A) (A) (A) (A) (A) (A) (A) (A) (A) (A)
                 (A) (A) (A) (A) (A) (A) (A) (A) (A) (A) (A) (A)
                 (A) (A) (A) (A) (A) (A) (A) (A) (A) (A) (A) (A)
       Virtual   (A) (A) (A) (A) (A) (A) (A) (A) (A) (A) (A) (A)
                 (A) (A) (A) (A) (A) (A) (A) (A) (A) (A) (A) (A)
                 (A) (A) (A) (A) (A) (A) (A) (A) (A) (A) (A) (A)
                 (A) (A) (A) (A) (A) (A) (A) (A) (A) (A) (A) (A)
                 (A) (A) (A) (A) (A) (A) (A) (A) (A) (A) (A) (A)
                 (A) (A) (A) (A) (A) (A) (A) (A) (A) (A) (A) (A)
                 (A) (A) (A) (A) (A) (A) (A) (A) (A) (A) (A) (A)
                 (A) (A) (A) (A) (A) (A) (A) (A) (A) (A) (A) (A)
                 (A) (A) (A) (A) (A) (A) (A) (A) (A) (A) (A) (A)
                 (A) (A) (A) (A) (A) (A) (A) (A) (A) (A) (A) (A)
                 (A) (A) (A) (A) (A) (A) (A) (A) (A) (A) (A) (A)
                 (A) (A) (A) (A) (A) (A) (A) (A) (A) (A) (A) (A)
                 (A) (A) (A) (A) (A) (A) (A) (A) (A) (A) (A) (A)
                 (A) (A) (A) (A) (A) (A) (A) (A) (A) (A) (A) (A)
                 (A) (A) (A) (A) (A) (A) (A) (A) (A) (A) (A) (A)
                 (A) (A) (A) (A) (A) (A) (A) (A) (A) (A) (A) (A)
                 (A) (A) (A) (A) (A) (A) (A) (A) (A) (A) (A) (A)
                 (A) (A) (A) (A) (A) (A) (A) (A) (A) (A)
 The electronic state is 1-A.
 Alpha  occ. eigenvalues --  -19.20956 -19.13780 -19.10461 -14.35750 -10.32452
 Alpha  occ. eigenvalues --  -10.29637 -10.27470 -10.22003 -10.21227 -10.21078
 Alpha  occ. eigenvalues --  -10.20701 -10.20657 -10.20034 -10.18935 -10.18791
 Alpha  occ. eigenvalues --  -10.18130  -1.11670  -1.03021  -1.02058  -0.95243
 Alpha  occ. eigenvalues --   -0.87449  -0.83886  -0.78547  -0.74447  -0.69806
 Alpha  occ. eigenvalues --   -0.69158  -0.66247  -0.62729  -0.61449  -0.59186
 Alpha  occ. eigenvalues --   -0.56514  -0.54118  -0.53294  -0.50494  -0.50009
 Alpha  occ. eigenvalues --   -0.48187  -0.47010  -0.45637  -0.44717  -0.44164
 Alpha  occ. eigenvalues --   -0.43935  -0.42220  -0.41582  -0.40485  -0.40224
 Alpha  occ. eigenvalues --   -0.39124  -0.38728  -0.38483  -0.38052  -0.36806
 Alpha  occ. eigenvalues --   -0.35365  -0.35119  -0.34177  -0.32519  -0.31991
 Alpha  occ. eigenvalues --   -0.30411  -0.27945  -0.25421  -0.24311  -0.24001
 Alpha virt. eigenvalues --   -0.03164  -0.00188   0.07283   0.07965   0.08789
 Alpha virt. eigenvalues --    0.09828   0.10279   0.11586   0.13016   0.13438
 Alpha virt. eigenvalues --    0.13898   0.14318   0.14834   0.15486   0.16024
 Alpha virt. eigenvalues --    0.17234   0.17675   0.17999   0.18772   0.18853
 Alpha virt. eigenvalues --    0.19527   0.20093   0.21047   0.22555   0.22676
 Alpha virt. eigenvalues --    0.23826   0.24745   0.24997   0.26145   0.26753
 Alpha virt. eigenvalues --    0.30207   0.30925   0.32051   0.34414   0.37308
 Alpha virt. eigenvalues --    0.42229   0.45702   0.47166   0.48393   0.48650
 Alpha virt. eigenvalues --    0.50138   0.51324   0.51938   0.52711   0.53804
 Alpha virt. eigenvalues --    0.55109   0.56256   0.56985   0.57369   0.58868
 Alpha virt. eigenvalues --    0.59851   0.60992   0.61382   0.62031   0.63282
 Alpha virt. eigenvalues --    0.64513   0.65795   0.66720   0.68016   0.68308
 Alpha virt. eigenvalues --    0.69681   0.69985   0.71554   0.72581   0.76669
 Alpha virt. eigenvalues --    0.76905   0.77580   0.78940   0.80373   0.80720
 Alpha virt. eigenvalues --    0.82276   0.82739   0.83876   0.84806   0.85779
 Alpha virt. eigenvalues --    0.86282   0.86887   0.87651   0.88207   0.88962
 Alpha virt. eigenvalues --    0.89682   0.90063   0.90781   0.91489   0.92159
 Alpha virt. eigenvalues --    0.93734   0.95512   0.96090   0.96742   0.98602
 Alpha virt. eigenvalues --    0.98881   0.99890   1.01286   1.03139   1.04003
 Alpha virt. eigenvalues --    1.05562   1.06494   1.08636   1.09236   1.12830
 Alpha virt. eigenvalues --    1.13643   1.14762   1.18464   1.19981   1.24025
 Alpha virt. eigenvalues --    1.29237   1.30169   1.33129   1.33822   1.34718
 Alpha virt. eigenvalues --    1.36899   1.37552   1.40690   1.43349   1.45465
 Alpha virt. eigenvalues --    1.46657   1.47064   1.50734   1.53500   1.56156
 Alpha virt. eigenvalues --    1.58647   1.63607   1.66503   1.70433   1.70691
 Alpha virt. eigenvalues --    1.75686   1.75982   1.76744   1.78364   1.79269
 Alpha virt. eigenvalues --    1.80545   1.81789   1.82186   1.82392   1.83615
 Alpha virt. eigenvalues --    1.84555   1.85277   1.86655   1.87172   1.89944
 Alpha virt. eigenvalues --    1.90080   1.92627   1.93365   1.94362   1.95861
 Alpha virt. eigenvalues --    1.97843   2.00286   2.02142   2.03246   2.03971
 Alpha virt. eigenvalues --    2.04876   2.07511   2.08694   2.09504   2.13044
 Alpha virt. eigenvalues --    2.13455   2.15089   2.17760   2.18867   2.22257
 Alpha virt. eigenvalues --    2.24718   2.25933   2.28322   2.29205   2.30052
 Alpha virt. eigenvalues --    2.30309   2.31867   2.33030   2.36008   2.38821
 Alpha virt. eigenvalues --    2.40812   2.40984   2.43519   2.45556   2.47031
 Alpha virt. eigenvalues --    2.49261   2.52642   2.55927   2.57196   2.58214
 Alpha virt. eigenvalues --    2.60583   2.67071   2.67393   2.70916   2.71941
 Alpha virt. eigenvalues --    2.74004   2.75590   2.81042   2.82234   2.86967
 Alpha virt. eigenvalues --    2.90869   2.96325   2.98552   3.00497   3.09483
 Alpha virt. eigenvalues --    3.15142   3.18780   3.25298   4.03464   4.05608
 Alpha virt. eigenvalues --    4.10649   4.14262   4.16985   4.23485   4.27905
 Alpha virt. eigenvalues --    4.28430   4.29550   4.34719   4.40446   4.46177
 Alpha virt. eigenvalues --    4.58996   4.61693   4.70519   4.75890
          Condensed to atoms (all electrons):
               1          2          3          4          5          6
     1  C    5.136923   0.357831  -0.056014  -0.045060  -0.002434  -0.000146
     2  C    0.357831   4.953899   0.376504   0.367702  -0.043591   0.004330
     3  C   -0.056014   0.376504   5.108457  -0.039548  -0.008438   0.000049
     4  C   -0.045060   0.367702  -0.039548   4.927408   0.545292  -0.013744
     5  C   -0.002434  -0.043591  -0.008438   0.545292   5.220568   0.367170
     6  C   -0.000146   0.004330   0.000049  -0.013744   0.367170   4.287998
     7  O    0.000001  -0.000096   0.000001   0.003319  -0.074055   0.587326
     8  N    0.000055   0.004711  -0.000062  -0.021569  -0.145785   0.259624
     9  C   -0.000916  -0.066899   0.004221   0.339139  -0.038472  -0.054024
    10  O   -0.000482   0.001865   0.000082  -0.031462   0.000245   0.000144
    11  C    0.000023   0.000149  -0.000134  -0.007766  -0.000033   0.000905
    12  O    0.000024  -0.000217  -0.000173   0.005648  -0.002794   0.003121
    13  C    0.000002  -0.000070   0.000001  -0.000237  -0.000057   0.000029
    14  C    0.000000   0.000001  -0.000000   0.000009  -0.000000  -0.000001
    15  C   -0.000001   0.000000   0.000000  -0.000011   0.000000  -0.000001
    16  C    0.000003  -0.000097   0.000002   0.004579   0.009426  -0.027591
    17  H    0.371854  -0.032632  -0.005683  -0.004040   0.002218  -0.000026
    18  H    0.367966  -0.030438   0.005523  -0.006357  -0.000235   0.000009
    19  H    0.367438  -0.029232  -0.004346   0.005124   0.000017   0.000002
    20  H   -0.046203   0.374297  -0.045876  -0.045741   0.003430  -0.000075
    21  H   -0.005943  -0.029878   0.371621  -0.008176   0.003193   0.000030
    22  H    0.005391  -0.028422   0.371147  -0.003253   0.002376  -0.000056
    23  H   -0.003709  -0.029013   0.371008   0.004521   0.000190  -0.000000
    24  H    0.000231  -0.007026   0.003075  -0.042620   0.366163  -0.033667
    25  H    0.001853  -0.003480  -0.000030  -0.050875   0.001591   0.001951
    26  H   -0.000000   0.000001  -0.000000   0.000013   0.000002  -0.000000
    27  H    0.000000  -0.000000  -0.000000   0.000000   0.000000  -0.000000
    28  H   -0.000000  -0.000000   0.000000   0.000004   0.000000  -0.000001
    29  H   -0.000000   0.000002   0.000000   0.000014  -0.000000  -0.000000
    30  H    0.000000  -0.000000   0.000000   0.000001  -0.000000   0.000000
    31  H   -0.000002  -0.000001  -0.000000  -0.000111  -0.000091  -0.000059
    32  H    0.000000   0.000002  -0.000000   0.000267  -0.000244   0.002259
    33  H   -0.000000   0.000004  -0.000000  -0.000165   0.000812   0.001692
               7          8          9         10         11         12
     1  C    0.000001   0.000055  -0.000916  -0.000482   0.000023   0.000024
     2  C   -0.000096   0.004711  -0.066899   0.001865   0.000149  -0.000217
     3  C    0.000001  -0.000062   0.004221   0.000082  -0.000134  -0.000173
     4  C    0.003319  -0.021569   0.339139  -0.031462  -0.007766   0.005648
     5  C   -0.074055  -0.145785  -0.038472   0.000245  -0.000033  -0.002794
     6  C    0.587326   0.259624  -0.054024   0.000144   0.000905   0.003121
     7  O    8.074145  -0.081758   0.003582  -0.000009  -0.000030  -0.000019
     8  N   -0.081758   7.154847   0.260753  -0.052732  -0.006447  -0.001003
     9  C    0.003582   0.260753   4.809420   0.180969  -0.011937  -0.001286
    10  O   -0.000009  -0.052732   0.180969   8.336096   0.242648  -0.066130
    11  C   -0.000030  -0.006447  -0.011937   0.242648   4.266965   0.530492
    12  O   -0.000019  -0.001003  -0.001286  -0.066130   0.530492   8.071545
    13  C    0.000000  -0.000620   0.005378  -0.103419   0.398881  -0.072026
    14  C    0.000000   0.000064  -0.000269   0.002951  -0.015400  -0.001374
    15  C    0.000000   0.000003   0.000051   0.001105  -0.017415   0.003975
    16  C   -0.001673   0.278635  -0.044766   0.001861  -0.000063  -0.000131
    17  H   -0.000000  -0.000028  -0.000394   0.000009   0.000003  -0.000000
    18  H    0.000000   0.000004   0.002380   0.000262  -0.000007  -0.000001
    19  H   -0.000000  -0.000001  -0.000020  -0.000004   0.000003   0.000000
    20  H    0.000001   0.000218  -0.007819   0.004903   0.002667   0.000093
    21  H    0.000000  -0.000001  -0.000073  -0.000002   0.000002   0.000002
    22  H    0.000000  -0.000001  -0.000064  -0.000012   0.000080   0.000276
    23  H    0.000000   0.000001  -0.000102   0.000001   0.000000  -0.000001
    24  H    0.000078   0.004191   0.006228  -0.000038  -0.000011   0.000030
    25  H    0.000022  -0.059258   0.390867  -0.050014   0.003121  -0.000098
    26  H   -0.000000  -0.000002  -0.000101   0.002483  -0.021151  -0.001416
    27  H   -0.000000  -0.000001   0.000005  -0.000011   0.001200  -0.000010
    28  H   -0.000000  -0.000042  -0.000110   0.001708  -0.003469   0.000166
    29  H    0.000000   0.000010  -0.000150   0.007688  -0.005465   0.000075
    30  H    0.000000   0.000000  -0.000001   0.000211   0.001277  -0.000040
    31  H    0.000362  -0.050864  -0.002249  -0.000782   0.000020   0.000000
    32  H    0.000144  -0.045301  -0.002490   0.005304   0.001001   0.000004
    33  H    0.012875  -0.034575   0.003775   0.000006  -0.000068  -0.000005
              13         14         15         16         17         18
     1  C    0.000002   0.000000  -0.000001   0.000003   0.371854   0.367966
     2  C   -0.000070   0.000001   0.000000  -0.000097  -0.032632  -0.030438
     3  C    0.000001  -0.000000   0.000000   0.000002  -0.005683   0.005523
     4  C   -0.000237   0.000009  -0.000011   0.004579  -0.004040  -0.006357
     5  C   -0.000057  -0.000000   0.000000   0.009426   0.002218  -0.000235
     6  C    0.000029  -0.000001  -0.000001  -0.027591  -0.000026   0.000009
     7  O    0.000000   0.000000   0.000000  -0.001673  -0.000000   0.000000
     8  N   -0.000620   0.000064   0.000003   0.278635  -0.000028   0.000004
     9  C    0.005378  -0.000269   0.000051  -0.044766  -0.000394   0.002380
    10  O   -0.103419   0.002951   0.001105   0.001861   0.000009   0.000262
    11  C    0.398881  -0.015400  -0.017415  -0.000063   0.000003  -0.000007
    12  O   -0.072026  -0.001374   0.003975  -0.000131  -0.000000  -0.000001
    13  C    5.191745   0.262551   0.221429  -0.000064   0.000000  -0.000001
    14  C    0.262551   5.088617   0.265160  -0.000152   0.000000  -0.000000
    15  C    0.221429   0.265160   5.156254   0.000008  -0.000000   0.000000
    16  C   -0.000064  -0.000152   0.000008   4.973003  -0.000001   0.000002
    17  H    0.000000   0.000000  -0.000000  -0.000001   0.564656  -0.031112
    18  H   -0.000001  -0.000000   0.000000   0.000002  -0.031112   0.578178
    19  H   -0.000000   0.000000  -0.000000  -0.000000  -0.029043  -0.028778
    20  H    0.000073   0.000005   0.000015  -0.000010   0.005803  -0.003520
    21  H    0.000000   0.000000  -0.000000  -0.000000   0.005146  -0.000012
    22  H    0.000001   0.000000  -0.000000   0.000000  -0.000047  -0.000197
    23  H   -0.000000  -0.000000   0.000000  -0.000000  -0.000268  -0.000026
    24  H    0.000000  -0.000000   0.000000  -0.000086   0.000012  -0.000004
    25  H   -0.000316   0.000010   0.000008  -0.001367   0.000130   0.002879
    26  H    0.374343  -0.019345  -0.032686  -0.000000  -0.000000  -0.000000
    27  H   -0.019087   0.381044  -0.022410   0.000001  -0.000000  -0.000000
    28  H   -0.030252   0.385852  -0.021352   0.000007  -0.000000  -0.000000
    29  H   -0.023506  -0.020427   0.381634   0.000008  -0.000000   0.000002
    30  H   -0.014911  -0.021532   0.372124  -0.000000   0.000000   0.000000
    31  H   -0.000006   0.000004   0.000000   0.378662   0.000001   0.000001
    32  H    0.000005   0.000104  -0.000029   0.377613  -0.000000  -0.000000
    33  H   -0.000001   0.000002   0.000000   0.374511  -0.000000  -0.000000
              19         20         21         22         23         24
     1  C    0.367438  -0.046203  -0.005943   0.005391  -0.003709   0.000231
     2  C   -0.029232   0.374297  -0.029878  -0.028422  -0.029013  -0.007026
     3  C   -0.004346  -0.045876   0.371621   0.371147   0.371008   0.003075
     4  C    0.005124  -0.045741  -0.008176  -0.003253   0.004521  -0.042620
     5  C    0.000017   0.003430   0.003193   0.002376   0.000190   0.366163
     6  C    0.000002  -0.000075   0.000030  -0.000056  -0.000000  -0.033667
     7  O   -0.000000   0.000001   0.000000   0.000000   0.000000   0.000078
     8  N   -0.000001   0.000218  -0.000001  -0.000001   0.000001   0.004191
     9  C   -0.000020  -0.007819  -0.000073  -0.000064  -0.000102   0.006228
    10  O   -0.000004   0.004903  -0.000002  -0.000012   0.000001  -0.000038
    11  C    0.000003   0.002667   0.000002   0.000080   0.000000  -0.000011
    12  O    0.000000   0.000093   0.000002   0.000276  -0.000001   0.000030
    13  C   -0.000000   0.000073   0.000000   0.000001  -0.000000   0.000000
    14  C    0.000000   0.000005   0.000000   0.000000  -0.000000  -0.000000
    15  C   -0.000000   0.000015  -0.000000  -0.000000   0.000000   0.000000
    16  C   -0.000000  -0.000010  -0.000000   0.000000  -0.000000  -0.000086
    17  H   -0.029043   0.005803   0.005146  -0.000047  -0.000268   0.000012
    18  H   -0.028778  -0.003520  -0.000012  -0.000197  -0.000026  -0.000004
    19  H    0.566580  -0.003017  -0.000187  -0.000028   0.003904  -0.000007
    20  H   -0.003017   0.617421   0.005699  -0.003096  -0.004350   0.000005
    21  H   -0.000187   0.005699   0.571387  -0.030056  -0.031590   0.001385
    22  H   -0.000028  -0.003096  -0.030056   0.550119  -0.028456   0.000753
    23  H    0.003904  -0.004350  -0.031590  -0.028456   0.572212  -0.000079
    24  H   -0.000007   0.000005   0.001385   0.000753  -0.000079   0.547402
    25  H   -0.000065   0.000275  -0.000001  -0.000002   0.000002  -0.000175
    26  H   -0.000000  -0.000017  -0.000000   0.000000  -0.000000   0.000000
    27  H   -0.000000  -0.000000   0.000000   0.000000  -0.000000   0.000000
    28  H   -0.000000   0.000000  -0.000000  -0.000000  -0.000000   0.000000
    29  H   -0.000000   0.000001   0.000000   0.000000  -0.000000   0.000000
    30  H    0.000000   0.000001   0.000000   0.000000  -0.000000   0.000000
    31  H    0.000000   0.000002   0.000000  -0.000000  -0.000000   0.000002
    32  H   -0.000000  -0.000003  -0.000000   0.000000   0.000000   0.000004
    33  H    0.000000  -0.000000  -0.000000  -0.000000   0.000000  -0.000011
              25         26         27         28         29         30
     1  C    0.001853  -0.000000   0.000000  -0.000000  -0.000000   0.000000
     2  C   -0.003480   0.000001  -0.000000  -0.000000   0.000002  -0.000000
     3  C   -0.000030  -0.000000  -0.000000   0.000000   0.000000   0.000000
     4  C   -0.050875   0.000013   0.000000   0.000004   0.000014   0.000001
     5  C    0.001591   0.000002   0.000000   0.000000  -0.000000  -0.000000
     6  C    0.001951  -0.000000  -0.000000  -0.000001  -0.000000   0.000000
     7  O    0.000022  -0.000000  -0.000000  -0.000000   0.000000   0.000000
     8  N   -0.059258  -0.000002  -0.000001  -0.000042   0.000010   0.000000
     9  C    0.390867  -0.000101   0.000005  -0.000110  -0.000150  -0.000001
    10  O   -0.050014   0.002483  -0.000011   0.001708   0.007688   0.000211
    11  C    0.003121  -0.021151   0.001200  -0.003469  -0.005465   0.001277
    12  O   -0.000098  -0.001416  -0.000010   0.000166   0.000075  -0.000040
    13  C   -0.000316   0.374343  -0.019087  -0.030252  -0.023506  -0.014911
    14  C    0.000010  -0.019345   0.381044   0.385852  -0.020427  -0.021532
    15  C    0.000008  -0.032686  -0.022410  -0.021352   0.381634   0.372124
    16  C   -0.001367  -0.000000   0.000001   0.000007   0.000008  -0.000000
    17  H    0.000130  -0.000000  -0.000000  -0.000000  -0.000000   0.000000
    18  H    0.002879  -0.000000  -0.000000  -0.000000   0.000002   0.000000
    19  H   -0.000065  -0.000000  -0.000000  -0.000000  -0.000000   0.000000
    20  H    0.000275  -0.000017  -0.000000   0.000000   0.000001   0.000001
    21  H   -0.000001  -0.000000   0.000000  -0.000000   0.000000   0.000000
    22  H   -0.000002   0.000000   0.000000  -0.000000   0.000000   0.000000
    23  H    0.000002  -0.000000  -0.000000  -0.000000  -0.000000  -0.000000
    24  H   -0.000175   0.000000   0.000000   0.000000   0.000000   0.000000
    25  H    0.591076   0.000004  -0.000000   0.000001   0.000022  -0.000001
    26  H    0.000004   0.527906  -0.006114   0.002286   0.002190  -0.004084
    27  H   -0.000000  -0.006114   0.530585  -0.029316   0.002093  -0.006013
    28  H    0.000001   0.002286  -0.029316   0.528725  -0.005464   0.002285
    29  H    0.000022   0.002190   0.002093  -0.005464   0.519558  -0.029311
    30  H   -0.000001  -0.004084  -0.006013   0.002285  -0.029311   0.541350
    31  H    0.006208   0.000000  -0.000000  -0.000010   0.000001   0.000000
    32  H   -0.001134   0.000003   0.000002   0.002013  -0.000006   0.000000
    33  H   -0.000180   0.000000  -0.000000  -0.000005   0.000000   0.000000
              31         32         33
     1  C   -0.000002   0.000000  -0.000000
     2  C   -0.000001   0.000002   0.000004
     3  C   -0.000000  -0.000000  -0.000000
     4  C   -0.000111   0.000267  -0.000165
     5  C   -0.000091  -0.000244   0.000812
     6  C   -0.000059   0.002259   0.001692
     7  O    0.000362   0.000144   0.012875
     8  N   -0.050864  -0.045301  -0.034575
     9  C   -0.002249  -0.002490   0.003775
    10  O   -0.000782   0.005304   0.000006
    11  C    0.000020   0.001001  -0.000068
    12  O    0.000000   0.000004  -0.000005
    13  C   -0.000006   0.000005  -0.000001
    14  C    0.000004   0.000104   0.000002
    15  C    0.000000  -0.000029   0.000000
    16  C    0.378662   0.377613   0.374511
    17  H    0.000001  -0.000000  -0.000000
    18  H    0.000001  -0.000000  -0.000000
    19  H    0.000000  -0.000000   0.000000
    20  H    0.000002  -0.000003  -0.000000
    21  H    0.000000  -0.000000  -0.000000
    22  H   -0.000000   0.000000  -0.000000
    23  H   -0.000000   0.000000   0.000000
    24  H    0.000002   0.000004  -0.000011
    25  H    0.006208  -0.001134  -0.000180
    26  H    0.000000   0.000003   0.000000
    27  H   -0.000000   0.000002  -0.000000
    28  H   -0.000010   0.002013  -0.000005
    29  H    0.000001  -0.000006   0.000000
    30  H    0.000000   0.000000   0.000000
    31  H    0.588358  -0.042487  -0.027350
    32  H   -0.042487   0.569048  -0.023808
    33  H   -0.027350  -0.023808   0.491942
 Mulliken charges:
               1
     1  C   -0.448687
     2  C   -0.140207
     3  C   -0.451385
     4  C    0.117696
     5  C   -0.206466
     6  C    0.612754
     7  O   -0.524216
     8  N   -0.463066
     9  C    0.225372
    10  O   -0.485445
    11  C    0.639961
    12  O   -0.468728
    13  C   -0.189865
    14  C   -0.307872
    15  C   -0.307861
    16  C   -0.322321
    17  H    0.153443
    18  H    0.143481
    19  H    0.151660
    20  H    0.144819
    21  H    0.147453
    22  H    0.163548
    23  H    0.145758
    24  H    0.154162
    25  H    0.166976
    26  H    0.175682
    27  H    0.168032
    28  H    0.166974
    29  H    0.171033
    30  H    0.158643
    31  H    0.150393
    32  H    0.157731
    33  H    0.200548
 Sum of Mulliken charges =   0.00000
 Mulliken charges with hydrogens summed into heavy atoms:
               1
     1  C   -0.000103
     2  C    0.004612
     3  C    0.005374
     4  C    0.117696
     5  C   -0.052303
     6  C    0.612754
     7  O   -0.524216
     8  N   -0.463066
     9  C    0.392348
    10  O   -0.485445
    11  C    0.639961
    12  O   -0.468728
    13  C   -0.014183
    14  C    0.027134
    15  C    0.021815
    16  C    0.186351
 Electronic spatial extent (au):  <R**2>=           3772.6064
 Charge=             -0.0000 electrons
 Dipole moment (field-independent basis, Debye):
    X=              2.2607    Y=             -3.5968    Z=              3.2459  Tot=              5.3464
 Quadrupole moment (field-independent basis, Debye-Ang):
   XX=            -87.7975   YY=            -99.7666   ZZ=            -96.7494
   XY=              8.3197   XZ=             -1.9723   YZ=              6.9499
 Traceless Quadrupole moment (field-independent basis, Debye-Ang):
   XX=              6.9737   YY=             -4.9955   ZZ=             -1.9782
   XY=              8.3197   XZ=             -1.9723   YZ=              6.9499
 Octapole moment (field-independent basis, Debye-Ang**2):
  XXX=             34.4973  YYY=            -23.6575  ZZZ=              6.8205  XYY=             33.7887
  XXY=            -23.4848  XXZ=            -11.1571  XZZ=             -2.5684  YZZ=              1.5120
  YYZ=             13.4966  XYZ=             -2.7020
 Hexadecapole moment (field-independent basis, Debye-Ang**3):
 XXXX=          -2627.5344 YYYY=          -1718.2986 ZZZZ=           -576.5718 XXXY=            -17.6664
 XXXZ=            -43.0278 YYYX=             84.9118 YYYZ=             46.1302 ZZZX=              8.5631
 ZZZY=              4.8687 XXYY=           -772.0785 XXZZ=           -555.0825 YYZZ=           -375.7006
 XXYZ=             22.1127 YYXZ=            -25.8283 ZZXY=            -11.8587
 N-N= 1.168290947921D+03 E-N=-4.077682423614D+03  KE= 7.411976092419D+02
 Calling FoFJK, ICntrl=      2127 FMM=F ISym2X=0 I1Cent= 0 IOpClX= 0 NMat=1 NMatS=1 NMatT=0.
 ***** Axes restored to original set *****
 -------------------------------------------------------------------
 Center     Atomic                   Forces (Hartrees/Bohr)
 Number     Number              X              Y              Z
 -------------------------------------------------------------------
      1        6           0.002061412   -0.007483132   -0.002421459
      2        6           0.002467818    0.004142254    0.000833083
      3        6          -0.003087420    0.003518637    0.003151569
      4        6           0.022693051    0.022062217    0.004256248
      5        6           0.007448885   -0.022989846    0.005053009
      6        6           0.000004493    0.018351446   -0.005530602
      7        8          -0.015452621   -0.005411687    0.000480710
      8        7          -0.011646860    0.003312939    0.001328165
      9        6          -0.016438444    0.010443462   -0.011931268
     10        8           0.004446578   -0.007938336   -0.005162963
     11        6          -0.003026971    0.021559105    0.018969719
     12        8           0.006316069   -0.015600764   -0.013603402
     13        6           0.007482420   -0.006637101    0.001534962
     14        6          -0.000748821   -0.006430198    0.001510673
     15        6          -0.002090536   -0.003525676   -0.000060701
     16        6           0.002775074   -0.001523949   -0.000837908
     17        1          -0.000815887    0.000901444    0.000677186
     18        1           0.000093651   -0.000913182   -0.001104893
     19        1          -0.000005508    0.000206557    0.000395787
     20        1          -0.001256858   -0.003146490    0.000660502
     21        1          -0.000677769   -0.000170502   -0.000548753
     22        1          -0.000745287    0.000211482   -0.000920302
     23        1          -0.000349548   -0.001258588   -0.000950628
     24        1           0.001741867    0.002924867   -0.000918261
     25        1           0.005292381   -0.008893863    0.008983673
     26        1          -0.003560352    0.002393909   -0.001519467
     27        1          -0.001115483    0.001817575    0.001072026
     28        1          -0.000610136    0.001169418   -0.001679107
     29        1           0.000226234    0.002625693   -0.002163017
     30        1           0.001151723    0.001458158    0.001246257
     31        1          -0.004231922   -0.005656833   -0.001116170
     32        1          -0.002320158   -0.002379111    0.000205995
     33        1           0.003978924    0.002860096    0.000109339
 -------------------------------------------------------------------
 Cartesian Forces:  Max     0.022989846 RMS     0.007105093

 GradGradGradGradGradGradGradGradGradGradGradGradGradGradGradGradGradGrad
 Berny optimization.
 FormGI is forming the generalized inverse of G from B-inverse, IUseBI=4.
 Internal  Forces:  Max     0.018978793 RMS     0.004186384
 Search for a local minimum.
 Step number   1 out of a maximum of  182
 All quantities printed in internal units (Hartrees-Bohrs-Radians)
 Mixed Optimization -- RFO/linear search
 Second derivative matrix not updated -- first step.
 ITU=  0
     Eigenvalues ---    0.00335   0.00352   0.00684   0.00941   0.01148
     Eigenvalues ---    0.01157   0.01235   0.01324   0.01340   0.01450
     Eigenvalues ---    0.01621   0.01763   0.01971   0.02192   0.02294
     Eigenvalues ---    0.02533   0.03078   0.03093   0.03526   0.03804
     Eigenvalues ---    0.03912   0.04998   0.05397   0.05434   0.05531
     Eigenvalues ---    0.05564   0.05622   0.06201   0.06818   0.07648
     Eigenvalues ---    0.07664   0.07818   0.10293   0.10439   0.11047
     Eigenvalues ---    0.14235   0.15918   0.15998   0.16000   0.16000
     Eigenvalues ---    0.16000   0.16000   0.16000   0.16000   0.16000
     Eigenvalues ---    0.16000   0.16000   0.16000   0.16681   0.17368
     Eigenvalues ---    0.18530   0.22791   0.23882   0.24135   0.24968
     Eigenvalues ---    0.24999   0.24999   0.25000   0.25000   0.26833
     Eigenvalues ---    0.27549   0.29186   0.29302   0.31086   0.31602
     Eigenvalues ---    0.31733   0.33804   0.33953   0.34079   0.34130
     Eigenvalues ---    0.34138   0.34160   0.34163   0.34174   0.34181
     Eigenvalues ---    0.34214   0.34413   0.34433   0.34467   0.35210
     Eigenvalues ---    0.35443   0.35464   0.35514   0.35559   0.36599
     Eigenvalues ---    0.39277   0.39527   0.41487   0.47214   0.54087
     Eigenvalues ---    0.54546   0.95347   0.96778
 RFO step:  Lambda=-1.46361635D-02 EMin= 3.34939695D-03
 Linear search not attempted -- first point.
 Iteration  1 RMS(Cart)=  0.07127816 RMS(Int)=  0.00180203
 Iteration  2 RMS(Cart)=  0.00411945 RMS(Int)=  0.00043681
 Iteration  3 RMS(Cart)=  0.00001090 RMS(Int)=  0.00043679
 Iteration  4 RMS(Cart)=  0.00000000 RMS(Int)=  0.00043679
 Variable       Old X    -DE/DX   Delta X   Delta X   Delta X     New X
                                 (Linear)    (Quad)   (Total)
    R1        2.89377   0.00624   0.00000   0.02029   0.02029   2.91406
    R2        2.07097  -0.00012   0.00000  -0.00033  -0.00033   2.07064
    R3        2.06971   0.00084   0.00000   0.00236   0.00236   2.07207
    R4        2.07026   0.00004   0.00000   0.00012   0.00012   2.07038
    R5        2.89616   0.00014   0.00000   0.00046   0.00046   2.89662
    R6        2.84635  -0.00229   0.00000  -0.00690  -0.00690   2.83945
    R7        2.07410   0.00173   0.00000   0.00488   0.00488   2.07898
    R8        2.07038   0.00046   0.00000   0.00128   0.00128   2.07166
    R9        2.07055  -0.00024   0.00000  -0.00067  -0.00067   2.06989
   R10        2.07060  -0.00045   0.00000  -0.00127  -0.00127   2.06933
   R11        2.53699  -0.00402   0.00000  -0.00729  -0.00734   2.52965
   R12        2.83753   0.01213   0.00000   0.03203   0.03206   2.86959
   R13        2.78433   0.01278   0.00000   0.03801   0.03794   2.82227
   R14        2.03156   0.00339   0.00000   0.00891   0.00891   2.04047
   R15        2.29958   0.00897   0.00000   0.00914   0.00914   2.30871
   R16        2.60017   0.00394   0.00000   0.00959   0.00959   2.60976
   R17        2.70201   0.00993   0.00000   0.02200   0.02207   2.72409
   R18        2.72201   0.00402   0.00000   0.00981   0.00981   2.73182
   R19        2.69581   0.00485   0.00000   0.01128   0.01128   2.70710
   R20        2.07112   0.00119   0.00000   0.00334   0.00334   2.07446
   R21        2.55952   0.00304   0.00000   0.00548   0.00548   2.56500
   R22        2.30562  -0.01732   0.00000  -0.01789  -0.01789   2.28773
   R23        2.80962   0.00384   0.00000   0.01088   0.01088   2.82050
   R24        2.85692   0.00378   0.00000   0.01243   0.01246   2.86939
   R25        2.85445  -0.00074   0.00000  -0.00260  -0.00262   2.85183
   R26        2.05336  -0.00118   0.00000  -0.00321  -0.00321   2.05015
   R27        2.83679   0.00051   0.00000   0.00104   0.00103   2.83782
   R28        2.04849   0.00125   0.00000   0.00339   0.00339   2.05188
   R29        2.04929   0.00132   0.00000   0.00357   0.00357   2.05286
   R30        2.04777   0.00063   0.00000   0.00169   0.00169   2.04946
   R31        2.04961   0.00111   0.00000   0.00302   0.00302   2.05263
   R32        2.06638   0.00399   0.00000   0.01111   0.01111   2.07749
   R33        2.06549   0.00149   0.00000   0.00415   0.00415   2.06964
   R34        2.06606  -0.00191   0.00000  -0.00531  -0.00531   2.06074
    A1        1.94415  -0.00230   0.00000  -0.01506  -0.01507   1.92908
    A2        1.94402   0.00211   0.00000   0.01357   0.01358   1.95761
    A3        1.93248  -0.00051   0.00000  -0.00256  -0.00261   1.92987
    A4        1.88407   0.00001   0.00000  -0.00063  -0.00057   1.88350
    A5        1.88304   0.00106   0.00000   0.00318   0.00311   1.88615
    A6        1.87325  -0.00030   0.00000   0.00187   0.00184   1.87509
    A7        1.91314   0.00462   0.00000   0.02694   0.02689   1.94002
    A8        1.93077   0.00075   0.00000   0.00231   0.00250   1.93328
    A9        1.88557  -0.00245   0.00000  -0.01261  -0.01298   1.87259
   A10        1.98622  -0.00516   0.00000  -0.02770  -0.02767   1.95855
   A11        1.86001   0.00169   0.00000   0.02094   0.02082   1.88084
   A12        1.88404   0.00054   0.00000  -0.00964  -0.00957   1.87447
   A13        1.95118  -0.00096   0.00000  -0.00801  -0.00804   1.94314
   A14        1.93811   0.00047   0.00000   0.00405   0.00405   1.94216
   A15        1.92848  -0.00147   0.00000  -0.00733  -0.00736   1.92113
   A16        1.88996  -0.00005   0.00000  -0.00233  -0.00233   1.88763
   A17        1.87821   0.00089   0.00000   0.00240   0.00234   1.88055
   A18        1.87511   0.00125   0.00000   0.01204   0.01205   1.88716
   A19        2.24212   0.00674   0.00000   0.03113   0.03107   2.27319
   A20        2.10660   0.00115   0.00000   0.01000   0.00994   2.11654
   A21        1.93445  -0.00788   0.00000  -0.04100  -0.04103   1.89341
   A22        1.87656   0.01084   0.00000   0.04331   0.04304   1.91961
   A23        2.26819  -0.00635   0.00000  -0.02684  -0.02695   2.24124
   A24        2.13838  -0.00448   0.00000  -0.01614  -0.01624   2.12214
   A25        2.16814   0.01898   0.00000   0.07086   0.07092   2.23905
   A26        1.87245  -0.00657   0.00000  -0.02293  -0.02301   1.84944
   A27        2.24185  -0.01238   0.00000  -0.04771  -0.04771   2.19414
   A28        1.94701   0.00031   0.00000  -0.00362  -0.00361   1.94340
   A29        2.17334  -0.00200   0.00000  -0.00578  -0.00577   2.16757
   A30        2.14169   0.00174   0.00000   0.00963   0.00957   2.15127
   A31        1.79040   0.00325   0.00000   0.02448   0.02377   1.81417
   A32        2.02138  -0.00311   0.00000  -0.01507  -0.01618   2.00520
   A33        1.91833   0.00266   0.00000   0.02391   0.02155   1.93988
   A34        1.96556   0.00342   0.00000   0.03306   0.03368   1.99924
   A35        1.88448   0.00320   0.00000   0.04575   0.04507   1.92955
   A36        1.87928  -0.00830   0.00000  -0.09970  -0.09984   1.77944
   A37        2.08978  -0.00195   0.00000  -0.00736  -0.00736   2.08243
   A38        2.22494  -0.01457   0.00000  -0.05492  -0.05537   2.16957
   A39        1.95981  -0.00046   0.00000  -0.00162  -0.00212   1.95768
   A40        2.09841   0.01505   0.00000   0.05699   0.05643   2.15484
   A41        2.08496  -0.00063   0.00000  -0.00980  -0.00987   2.07509
   A42        2.15802  -0.00064   0.00000   0.00158   0.00157   2.15958
   A43        1.96208  -0.00134   0.00000  -0.00997  -0.01023   1.95185
   A44        2.02887   0.00120   0.00000   0.00068   0.00058   2.02945
   A45        2.02274   0.00247   0.00000   0.02247   0.02240   2.04514
   A46        2.05427   0.00049   0.00000  -0.00755  -0.00757   2.04671
   A47        2.06812  -0.00115   0.00000  -0.01404  -0.01412   2.05400
   A48        2.06394   0.00204   0.00000   0.01808   0.01794   2.08189
   A49        2.05751  -0.00083   0.00000   0.00151   0.00137   2.05888
   A50        1.99102   0.00011   0.00000   0.00270   0.00227   1.99329
   A51        2.08493  -0.00216   0.00000  -0.02344  -0.02359   2.06135
   A52        2.05269  -0.00080   0.00000  -0.01118  -0.01137   2.04131
   A53        2.05782  -0.00084   0.00000   0.00683   0.00679   2.06461
   A54        2.05747   0.00007   0.00000   0.00719   0.00710   2.06458
   A55        1.98475   0.00171   0.00000   0.01130   0.01069   1.99545
   A56        1.89907   0.00959   0.00000   0.05880   0.05851   1.95758
   A57        1.90802   0.00421   0.00000   0.02456   0.02390   1.93192
   A58        1.92807  -0.00929   0.00000  -0.05761  -0.05715   1.87091
   A59        1.91501  -0.00458   0.00000  -0.01721  -0.01847   1.89655
   A60        1.90359  -0.00059   0.00000  -0.00444  -0.00363   1.89996
   A61        1.91002   0.00065   0.00000  -0.00397  -0.00390   1.90612
    D1       -1.13505   0.00216   0.00000   0.02163   0.02149  -1.11356
    D2        1.06917  -0.00057   0.00000   0.00726   0.00724   1.07641
    D3        3.12791  -0.00096   0.00000  -0.01064  -0.01057   3.11734
    D4        3.04351   0.00229   0.00000   0.02346   0.02336   3.06687
    D5       -1.03546  -0.00044   0.00000   0.00909   0.00911  -1.02634
    D6        1.02328  -0.00083   0.00000  -0.00882  -0.00869   1.01459
    D7        0.96043   0.00162   0.00000   0.01393   0.01382   0.97426
    D8       -3.11853  -0.00111   0.00000  -0.00044  -0.00043  -3.11896
    D9       -1.05979  -0.00149   0.00000  -0.01835  -0.01823  -1.07803
   D10        1.04342   0.00011   0.00000  -0.00166  -0.00187   1.04155
   D11       -3.12688  -0.00028   0.00000  -0.00734  -0.00756  -3.13444
   D12       -1.04793   0.00062   0.00000   0.00555   0.00530  -1.04263
   D13       -1.12891  -0.00069   0.00000  -0.00535  -0.00533  -1.13425
   D14        0.98398  -0.00109   0.00000  -0.01103  -0.01103   0.97295
   D15        3.06293  -0.00018   0.00000   0.00186   0.00184   3.06476
   D16        3.07981   0.00052   0.00000   0.00876   0.00900   3.08881
   D17       -1.09048   0.00013   0.00000   0.00308   0.00331  -1.08717
   D18        0.98847   0.00103   0.00000   0.01596   0.01617   1.00464
   D19       -1.90129  -0.00148   0.00000  -0.01069  -0.01066  -1.91195
   D20        1.24891  -0.00226   0.00000  -0.03087  -0.03099   1.21792
   D21        0.26154   0.00137   0.00000   0.00606   0.00603   0.26757
   D22       -2.87146   0.00059   0.00000  -0.01412  -0.01429  -2.88575
   D23        2.32223   0.00073   0.00000   0.00902   0.00924   2.33146
   D24       -0.81077  -0.00005   0.00000  -0.01116  -0.01109  -0.82185
   D25        3.13657   0.00079   0.00000   0.02567   0.02597  -3.12065
   D26        0.00630  -0.00013   0.00000  -0.00728  -0.00729  -0.00099
   D27       -0.01294   0.00154   0.00000   0.04441   0.04445   0.03151
   D28        3.13998   0.00062   0.00000   0.01146   0.01119  -3.13201
   D29        3.09792  -0.00107   0.00000  -0.02180  -0.02203   3.07588
   D30        0.94987  -0.00589   0.00000  -0.07217  -0.07225   0.87762
   D31       -1.18420   0.00531   0.00000   0.05249   0.05285  -1.13136
   D32       -0.03647  -0.00178   0.00000  -0.03899  -0.03867  -0.07514
   D33       -2.18452  -0.00660   0.00000  -0.08936  -0.08889  -2.27341
   D34        1.96459   0.00459   0.00000   0.03530   0.03620   2.00080
   D35       -3.04271  -0.00083   0.00000  -0.03701  -0.03784  -3.08055
   D36        0.06034  -0.00070   0.00000  -0.03300  -0.03375   0.02659
   D37        0.08859  -0.00002   0.00000  -0.00718  -0.00738   0.08121
   D38       -3.09155   0.00011   0.00000  -0.00318  -0.00328  -3.09483
   D39       -0.08678  -0.00010   0.00000   0.00963   0.00931  -0.07747
   D40       -3.01324  -0.00063   0.00000   0.00718   0.00711  -3.00613
   D41        3.01411   0.00096   0.00000   0.01737   0.01670   3.03082
   D42        0.08765   0.00043   0.00000   0.01491   0.01451   0.10216
   D43        0.07607   0.00151   0.00000   0.01786   0.01811   0.09418
   D44        2.26116   0.00182   0.00000   0.03450   0.03505   2.29621
   D45       -1.94951  -0.00432   0.00000  -0.03923  -0.03932  -1.98882
   D46        3.00708   0.00150   0.00000   0.01808   0.01809   3.02517
   D47       -1.09102   0.00180   0.00000   0.03473   0.03504  -1.05598
   D48        0.98150  -0.00433   0.00000  -0.03900  -0.03933   0.94218
   D49        1.81556  -0.00064   0.00000  -0.00298  -0.00393   1.81163
   D50       -2.37647   0.00203   0.00000   0.02593   0.02631  -2.35016
   D51       -0.27367  -0.00029   0.00000   0.00063   0.00079  -0.27288
   D52       -1.08782  -0.00099   0.00000  -0.00385  -0.00453  -1.09235
   D53        1.00333   0.00169   0.00000   0.02506   0.02571   1.02905
   D54        3.10613  -0.00063   0.00000  -0.00025   0.00019   3.10632
   D55        0.98461   0.00194   0.00000  -0.01390  -0.01523   0.96937
   D56       -1.06838  -0.00273   0.00000  -0.06070  -0.06122  -1.12960
   D57        3.13925  -0.00331   0.00000  -0.07186  -0.06999   3.06926
   D58       -0.04179  -0.00126   0.00000  -0.02720  -0.02884  -0.07063
   D59        3.10843  -0.00307   0.00000  -0.08803  -0.08639   3.02204
   D60       -1.27705   0.00240   0.00000   0.08332   0.08397  -1.19308
   D61       -0.03513   0.00133   0.00000   0.07694   0.07750   0.04238
   D62        2.53675   0.00302   0.00000   0.10976   0.11017   2.64692
   D63        1.87246   0.00090   0.00000   0.02804   0.02761   1.90008
   D64        3.11439  -0.00017   0.00000   0.02167   0.02114   3.13553
   D65       -0.59692   0.00152   0.00000   0.05449   0.05381  -0.54311
   D66       -2.40256   0.00116   0.00000   0.02890   0.02880  -2.37376
   D67        0.11120   0.00030   0.00000  -0.00119  -0.00110   0.11010
   D68        0.04216  -0.00045   0.00000  -0.00263  -0.00273   0.03943
   D69        2.55592  -0.00131   0.00000  -0.03272  -0.03263   2.52329
   D70        0.00230   0.00129   0.00000   0.03438   0.03430   0.03660
   D71        2.52881  -0.00026   0.00000  -0.00157  -0.00129   2.52752
   D72       -2.55180   0.00071   0.00000   0.01026   0.00996  -2.54185
   D73       -0.02529  -0.00085   0.00000  -0.02569  -0.02564  -0.05093
   D74        2.49150   0.00243   0.00000   0.04762   0.04789   2.53939
   D75        0.00144   0.00033   0.00000   0.00381   0.00380   0.00524
   D76       -0.02071   0.00022   0.00000   0.01016   0.01020  -0.01051
   D77       -2.51077  -0.00188   0.00000  -0.03365  -0.03389  -2.54466
         Item               Value     Threshold  Converged?
 Maximum Force            0.018979     0.000450     NO 
 RMS     Force            0.004186     0.000300     NO 
 Maximum Displacement     0.365801     0.001800     NO 
 RMS     Displacement     0.070447     0.001200     NO 
 Predicted change in Energy=-8.370559D-03
 GradGradGradGradGradGradGradGradGradGradGradGradGradGradGradGradGradGrad

                          Input orientation:                          
 ---------------------------------------------------------------------
 Center     Atomic      Atomic             Coordinates (Angstroms)
 Number     Number       Type             X           Y           Z
 ---------------------------------------------------------------------
      1          6           0        1.042606   -0.053964   -0.030263
      2          6           0        0.341347    0.821634    1.027796
      3          6           0        0.933599    2.235122    1.056835
      4          6           0       -1.145269    0.832904    0.809695
      5          6           0       -1.948728    1.813085    0.378831
      6          6           0       -3.365105    1.339889    0.357690
      7          8           0       -4.357204    1.937609   -0.030977
      8          7           0       -3.339657    0.043593    0.833293
      9          6           0       -1.989295   -0.402576    1.068770
     10          8           0       -1.780135   -1.018888    2.344922
     11          6           0       -1.928165   -0.278379    3.472799
     12          8           0       -2.162427    0.909307    3.483434
[...]
   285    C   13  dx2y2  Ryd( 3d)     0.00046       2.36363
   286    C   13  dz2    Ryd( 3d)     0.00048       2.46926
 
   287    C   14  S      Cor( 1S)     0.99962      -9.94792
   288    C   14  S      Val( 2S)     0.50675      -0.13947
   289    C   14  S      Ryd( 3S)     0.00091       1.57006
   290    C   14  S      Ryd( 4S)     0.00058       1.79064
   291    C   14  S      Ryd( 5S)     0.00005      19.28012
   292    C   14  px     Val( 2p)     0.57491       0.01232
   293    C   14  px     Ryd( 4p)     0.00112       1.26203
   294    C   14  px     Ryd( 3p)     0.00053       1.08339
   295    C   14  px     Ryd( 5p)     0.00003       3.01263
   296    C   14  py     Val( 2p)     0.53325       0.00887
   297    C   14  py     Ryd( 4p)     0.00114       1.75369
   298    C   14  py     Ryd( 3p)     0.00080       1.30658
   299    C   14  py     Ryd( 5p)     0.00003       3.03311
   300    C   14  pz     Val( 2p)     0.56119       0.00993
   301    C   14  pz     Ryd( 3p)     0.00106       0.96726
   302    C   14  pz     Ryd( 4p)     0.00029       1.08116
   303    C   14  pz     Ryd( 5p)     0.00003       2.96383
   304    C   14  dxy    Ryd( 3d)     0.00072       1.74661
   305    C   14  dxz    Ryd( 3d)     0.00081       1.86749
   306    C   14  dyz    Ryd( 3d)     0.00074       1.73556
   307    C   14  dx2y2  Ryd( 3d)     0.00069       1.91630
   308    C   14  dz2    Ryd( 3d)     0.00030       1.70384
 
   309    C   15  S      Cor( 1S)     0.99963      -9.95000
   310    C   15  S      Val( 2S)     0.50660      -0.13932
   311    C   15  S      Ryd( 4S)     0.00072       1.83075
   312    C   15  S      Ryd( 3S)     0.00085       1.54604
   313    C   15  S      Ryd( 5S)     0.00002      19.62310
   314    C   15  px     Val( 2p)     0.58186       0.00750
   315    C   15  px     Ryd( 4p)     0.00106       0.95017
   316    C   15  px     Ryd( 3p)     0.00034       0.78762
   317    C   15  px     Ryd( 5p)     0.00005       2.74077
   318    C   15  py     Val( 2p)     0.53088       0.00893
   319    C   15  py     Ryd( 4p)     0.00112       2.11891
   320    C   15  py     Ryd( 3p)     0.00065       1.24761
   321    C   15  py     Ryd( 5p)     0.00004       2.23830
   322    C   15  pz     Val( 2p)     0.56045       0.00824
   323    C   15  pz     Ryd( 4p)     0.00109       0.98072
   324    C   15  pz     Ryd( 3p)     0.00027       0.88183
   325    C   15  pz     Ryd( 5p)     0.00005       2.71511
   326    C   15  dxy    Ryd( 3d)     0.00044       2.32311
   327    C   15  dxz    Ryd( 3d)     0.00043       2.41328
   328    C   15  dyz    Ryd( 3d)     0.00042       2.26043
   329    C   15  dx2y2  Ryd( 3d)     0.00020       2.59074
   330    C   15  dz2    Ryd( 3d)     0.00018       2.19778
 
   331    C   16  S      Cor( 1S)     0.99965      -9.95104
   332    C   16  S      Val( 2S)     0.52749      -0.12501
   333    C   16  S      Ryd( 4S)     0.00070       2.24734
   334    C   16  S      Ryd( 3S)     0.00030       1.76341
   335    C   16  S      Ryd( 5S)     0.00001      20.05293
   336    C   16  px     Val( 2p)     0.57309       0.01766
   337    C   16  px     Ryd( 3p)     0.00129       0.68134
   338    C   16  px     Ryd( 4p)     0.00028       0.71876
   339    C   16  px     Ryd( 5p)     0.00009       2.81130
   340    C   16  py     Val( 2p)     0.49522       0.02950
   341    C   16  py     Ryd( 4p)     0.00140       1.10082
   342    C   16  py     Ryd( 3p)     0.00034       0.90769
   343    C   16  py     Ryd( 5p)     0.00004       2.36494
   344    C   16  pz     Val( 2p)     0.57383       0.01690
   345    C   16  pz     Ryd( 3p)     0.00112       0.68398
   346    C   16  pz     Ryd( 4p)     0.00020       0.78254
   347    C   16  pz     Ryd( 5p)     0.00008       2.84311
   348    C   16  dxy    Ryd( 3d)     0.00047       2.24073
   349    C   16  dxz    Ryd( 3d)     0.00021       2.11929
   350    C   16  dyz    Ryd( 3d)     0.00043       2.10726
   351    C   16  dx2y2  Ryd( 3d)     0.00046       2.29359
   352    C   16  dz2    Ryd( 3d)     0.00066       2.34461
 
   353    H   17  S      Val( 1S)     0.40353       0.13130
   354    H   17  S      Ryd( 4S)     0.00032       1.36549
   355    H   17  S      Ryd( 2S)     0.00015       0.83410
   356    H   17  S      Ryd( 3S)     0.00005       1.07866
   357    H   17  px     Ryd( 2p)     0.00011       2.47800
   358    H   17  py     Ryd( 2p)     0.00007       1.93976
   359    H   17  pz     Ryd( 2p)     0.00007       2.17550
 
   360    H   18  S      Val( 1S)     0.39689       0.14075
   361    H   18  S      Ryd( 3S)     0.00022       0.85765
   362    H   18  S      Ryd( 2S)     0.00034       0.69133
   363    H   18  S      Ryd( 4S)     0.00010       1.66189
   364    H   18  px     Ryd( 2p)     0.00011       2.49339
   365    H   18  py     Ryd( 2p)     0.00008       2.04534
   366    H   18  pz     Ryd( 2p)     0.00007       2.08612
 
   367    H   19  S      Val( 1S)     0.40621       0.12719
   368    H   19  S      Ryd( 3S)     0.00031       1.27291
   369    H   19  S      Ryd( 4S)     0.00014       1.34518
   370    H   19  S      Ryd( 2S)     0.00002       0.79401
   371    H   19  px     Ryd( 2p)     0.00007       1.92550
   372    H   19  py     Ryd( 2p)     0.00018       2.78598
   373    H   19  pz     Ryd( 2p)     0.00006       1.84835
 
   374    H   20  S      Val( 1S)     0.39285       0.14758
   375    H   20  S      Ryd( 3S)     0.00113       0.65093
   376    H   20  S      Ryd( 4S)     0.00012       2.52973
   377    H   20  S      Ryd( 2S)     0.00002       0.61272
   378    H   20  px     Ryd( 2p)     0.00013       2.60614
   379    H   20  py     Ryd( 2p)     0.00008       2.05927
   380    H   20  pz     Ryd( 2p)     0.00010       2.26806
 
   381    H   21  S      Val( 1S)     0.40308       0.12899
   382    H   21  S      Ryd( 3S)     0.00047       0.86680
   383    H   21  S      Ryd( 4S)     0.00008       2.20636
   384    H   21  S      Ryd( 2S)     0.00003       0.36714
   385    H   21  px     Ryd( 2p)     0.00013       2.60230
   386    H   21  py     Ryd( 2p)     0.00008       1.94197
   387    H   21  pz     Ryd( 2p)     0.00008       2.04874
 
   388    H   22  S      Val( 1S)     0.39610       0.14147
   389    H   22  S      Ryd( 3S)     0.00038       0.71667
   390    H   22  S      Ryd( 4S)     0.00008       2.29678
   391    H   22  S      Ryd( 2S)     0.00003       0.35568
   392    H   22  px     Ryd( 2p)     0.00005       1.84723
   393    H   22  py     Ryd( 2p)     0.00009       1.98573
   394    H   22  pz     Ryd( 2p)     0.00014       2.70621
 
   395    H   23  S      Val( 1S)     0.40540       0.12680
   396    H   23  S      Ryd( 3S)     0.00037       0.83364
   397    H   23  S      Ryd( 2S)     0.00004       0.57176
   398    H   23  S      Ryd( 4S)     0.00005       1.98950
   399    H   23  px     Ryd( 2p)     0.00007       1.87246
   400    H   23  py     Ryd( 2p)     0.00016       2.79589
   401    H   23  pz     Ryd( 2p)     0.00007       1.89257
 
   402    H   24  S      Val( 1S)     0.39815       0.17224
   403    H   24  S      Ryd( 4S)     0.00028       1.58333
   404    H   24  S      Ryd( 3S)     0.00010       1.27689
   405    H   24  S      Ryd( 2S)     0.00001       0.59511
   406    H   24  px     Ryd( 2p)     0.00018       2.58173
   407    H   24  py     Ryd( 2p)     0.00006       2.17016
   408    H   24  pz     Ryd( 2p)     0.00015       2.08819
 
   409    H   25  S      Val( 1S)     0.39918       0.12375
   410    H   25  S      Ryd( 2S)     0.00165       0.50614
   411    H   25  S      Ryd( 4S)     0.00049       1.51384
   412    H   25  S      Ryd( 3S)     0.00003       1.17360
   413    H   25  px     Ryd( 2p)     0.00006       2.13813
   414    H   25  py     Ryd( 2p)     0.00009       2.09773
   415    H   25  pz     Ryd( 2p)     0.00022       2.89283
 
   416    H   26  S      Val( 1S)     0.38508       0.14576
   417    H   26  S      Ryd( 2S)     0.00031       0.32583
   418    H   26  S      Ryd( 4S)     0.00025       1.45924
   419    H   26  S      Ryd( 3S)     0.00007       1.31259
   420    H   26  px     Ryd( 2p)     0.00007       2.16026
   421    H   26  py     Ryd( 2p)     0.00010       1.82085
   422    H   26  pz     Ryd( 2p)     0.00016       2.76882
 
   423    H   27  S      Val( 1S)     0.39132       0.13443
   424    H   27  S      Ryd( 2S)     0.00178       0.31079
   425    H   27  S      Ryd( 4S)     0.00025       1.47613
   426    H   27  S      Ryd( 3S)     0.00002       1.21067
   427    H   27  px     Ryd( 2p)     0.00009       2.72358
   428    H   27  py     Ryd( 2p)     0.00010       2.14938
   429    H   27  pz     Ryd( 2p)     0.00011       2.07964
 
   430    H   28  S      Val( 1S)     0.38753       0.14609
   431    H   28  S      Ryd( 2S)     0.00077       0.47548
   432    H   28  S      Ryd( 4S)     0.00034       1.78139
   433    H   28  S      Ryd( 3S)     0.00003       0.87981
   434    H   28  px     Ryd( 2p)     0.00009       2.19969
   435    H   28  py     Ryd( 2p)     0.00009       2.32700
   436    H   28  pz     Ryd( 2p)     0.00009       2.45846
 
   437    H   29  S      Val( 1S)     0.38946       0.14323
   438    H   29  S      Ryd( 2S)     0.00047       0.54230
   439    H   29  S      Ryd( 4S)     0.00031       1.71598
   440    H   29  S      Ryd( 3S)     0.00003       0.97646
   441    H   29  px     Ryd( 2p)     0.00013       2.14325
   442    H   29  py     Ryd( 2p)     0.00007       2.14028
   443    H   29  pz     Ryd( 2p)     0.00013       2.33850
 
   444    H   30  S      Val( 1S)     0.39507       0.13283
   445    H   30  S      Ryd( 2S)     0.00050       0.33598
   446    H   30  S      Ryd( 4S)     0.00025       1.43985
   447    H   30  S      Ryd( 3S)     0.00002       1.27800
   448    H   30  px     Ryd( 2p)     0.00016       2.35823
   449    H   30  py     Ryd( 2p)     0.00009       2.25910
   450    H   30  pz     Ryd( 2p)     0.00010       1.97497
 
   451    H   31  S      Val( 1S)     0.40828       0.12387
   452    H   31  S      Ryd( 2S)     0.00073       0.37826
   453    H   31  S      Ryd( 3S)     0.00035       1.08780
   454    H   31  S      Ryd( 4S)     0.00003       1.61106
   455    H   31  px     Ryd( 2p)     0.00007       1.92283
   456    H   31  py     Ryd( 2p)     0.00007       1.87547
   457    H   31  pz     Ryd( 2p)     0.00014       2.80716
 
   458    H   32  S      Val( 1S)     0.40707       0.13306
   459    H   32  S      Ryd( 2S)     0.00043       0.46737
   460    H   32  S      Ryd( 4S)     0.00035       1.53587
   461    H   32  S      Ryd( 3S)     0.00003       1.22104
   462    H   32  px     Ryd( 2p)     0.00012       2.75405
   463    H   32  py     Ryd( 2p)     0.00007       1.89887
   464    H   32  pz     Ryd( 2p)     0.00008       2.00893
 
   465    H   33  S      Val( 1S)     0.38819       0.15156
   466    H   33  S      Ryd( 2S)     0.00020       0.54756
   467    H   33  S      Ryd( 4S)     0.00055       1.71805
   468    H   33  S      Ryd( 3S)     0.00004       0.91319
   469    H   33  px     Ryd( 2p)     0.00011       2.12817
   470    H   33  py     Ryd( 2p)     0.00008       2.52175
   471    H   33  pz     Ryd( 2p)     0.00009       2.01420

 WARNING:  Population inversion found on atom  C    1
           Population inversion found on atom  C    2
           Population inversion found on atom  C    3
           Population inversion found on atom  C    4
           Population inversion found on atom  C    5
           Population inversion found on atom  C    6
           Population inversion found on atom  O    7
           Population inversion found on atom  N    8
           Population inversion found on atom  C    9
           Population inversion found on atom  C   11
           Population inversion found on atom  O   12
           Population inversion found on atom  C   13
           Population inversion found on atom  C   14
           Population inversion found on atom  C   15
           Population inversion found on atom  C   16
           Population inversion found on atom  H   17
           Population inversion found on atom  H   19
           Population inversion found on atom  H   20
           Population inversion found on atom  H   21
           Population inversion found on atom  H   22
           Population inversion found on atom  H   23
           Population inversion found on atom  H   24
           Population inversion found on atom  H   25
           Population inversion found on atom  H   26
           Population inversion found on atom  H   27
           Population inversion found on atom  H   28
           Population inversion found on atom  H   29
           Population inversion found on atom  H   30
           Population inversion found on atom  H   32
           Population inversion found on atom  H   33


 Summary of Natural Population Analysis:                  
                                                          
                                       Natural Population 
                Natural  -----------------------------------------------
    Atom  No    Charge         Core      Valence    Rydberg      Total
 -----------------------------------------------------------------------
      C    1   -0.27782      0.99965     2.27156    0.00660     3.27782
      C    2   -0.13182      0.99956     2.12400    0.00826     3.13182
      C    3   -0.28049      0.99966     2.27631    0.00452     3.28049
      C    4    0.06619      0.99948     1.92310    0.01123     2.93381
      C    5   -0.13300      0.99939     2.12463    0.00898     3.13300
      C    6    0.35240      0.99964     1.62289    0.02507     2.64760
      O    7   -0.30688      0.99987     3.30177    0.00524     4.30688
      N    8   -0.27196      0.99962     2.76257    0.00976     3.77196
      C    9    0.15294      0.99947     1.83044    0.01714     2.84706
      O   10   -0.29435      0.99986     3.28519    0.00929     4.29435
      C   11    0.40397      0.99963     1.56973    0.02667     2.59603
      O   12   -0.29270      0.99987     3.28763    0.00520     4.29270
      C   13   -0.16244      0.99955     2.15138    0.01151     3.16244
      C   14   -0.18558      0.99962     2.17611    0.00985     3.18558
      C   15   -0.18736      0.99963     2.17980    0.00793     3.18736
      C   16   -0.17735      0.99965     2.16964    0.00807     3.17735
      H   17    0.09570      0.00000     0.40353    0.00077     0.40430
      H   18    0.10218      0.00000     0.39689    0.00094     0.39782
      H   19    0.09300      0.00000     0.40621    0.00079     0.40700
      H   20    0.10557      0.00000     0.39285    0.00158     0.39443
      H   21    0.09606      0.00000     0.40308    0.00087     0.40394
      H   22    0.10314      0.00000     0.39610    0.00077     0.39686
      H   23    0.09385      0.00000     0.40540    0.00076     0.40615
      H   24    0.10106      0.00000     0.39815    0.00078     0.39894
      H   25    0.09827      0.00000     0.39918    0.00255     0.40173
      H   26    0.11396      0.00000     0.38508    0.00096     0.38604
      H   27    0.10633      0.00000     0.39132    0.00235     0.39367
      H   28    0.11105      0.00000     0.38753    0.00142     0.38895
      H   29    0.10939      0.00000     0.38946    0.00114     0.39061
      H   30    0.10382      0.00000     0.39507    0.00112     0.39618
      H   31    0.09033      0.00000     0.40828    0.00139     0.40967
      H   32    0.09184      0.00000     0.40707    0.00110     0.40816
      H   33    0.11073      0.00000     0.38819    0.00108     0.38927
 =======================================================================
   * Total *   -0.00000     15.99416    43.81014    0.19571    60.00000

                                 Natural Population      
 --------------------------------------------------------
   Core                      15.99416 ( 99.9635% of  16)
   Valence                   43.81014 ( 99.5685% of  44)
   Natural Minimal Basis     59.80429 ( 99.6738% of  60)
   Natural Rydberg Basis      0.19571 (  0.3262% of  60)
 --------------------------------------------------------

    Atom  No          Natural Electron Configuration
 ----------------------------------------------------------------------------
      C    1      [core]2S( 0.54)2p( 1.73)
      C    2      [core]2S( 0.48)2p( 1.64)
      C    3      [core]2S( 0.54)2p( 1.74)
      C    4      [core]2S( 0.43)2p( 1.49)3p( 0.01)
      C    5      [core]2S( 0.48)2p( 1.64)
      C    6      [core]2S( 0.38)2p( 1.24)3d( 0.01)4p( 0.01)
      O    7      [core]2S( 0.84)2p( 2.46)
      N    8      [core]2S( 0.61)2p( 2.15)
      C    9      [core]2S( 0.45)2p( 1.38)4p( 0.01)
      O   10      [core]2S( 0.81)2p( 2.47)
      C   11      [core]2S( 0.38)2p( 1.19)3d( 0.01)4p( 0.01)
      O   12      [core]2S( 0.85)2p( 2.44)
      C   13      [core]2S( 0.48)2p( 1.67)
      C   14      [core]2S( 0.51)2p( 1.67)
      C   15      [core]2S( 0.51)2p( 1.67)
      C   16      [core]2S( 0.53)2p( 1.64)
      H   17            1S( 0.40)
      H   18            1S( 0.40)
      H   19            1S( 0.41)
      H   20            1S( 0.39)
      H   21            1S( 0.40)
      H   22            1S( 0.40)
      H   23            1S( 0.41)
      H   24            1S( 0.40)
      H   25            1S( 0.40)
      H   26            1S( 0.39)
      H   27            1S( 0.39)
      H   28            1S( 0.39)
      H   29            1S( 0.39)
      H   30            1S( 0.40)
      H   31            1S( 0.41)
      H   32            1S( 0.41)
      H   33            1S( 0.39)


 NBO analysis skipped by request.
 1\1\GINC-NODE365\SP\UB3LYP\6-311++G(d,p)\C12H17N1O3(1-,2)\VSC10255\11-
 Dec-2020\0\\# B3LYP/6-311++G(d,p) empiricaldispersion=gd3bj scf=xqc po
 p=npa geom=check\\CID_135170528_JID_6826_Energie_anion\\-1,2\C,0,0.932
 178614,-0.3182349179,0.3956164414\C,0,0.2648572214,0.8597461212,1.1313
 730066\C,0,0.9601968954,2.1858116587,0.8099467741\C,0,-1.2091523525,0.
 9146248857,0.855502266\C,0,-1.9692046538,1.9136377229,0.3916797392\C,0
 ,-3.3991293604,1.503422535,0.3749464008\O,0,-4.3725996579,2.1345998186
 ,0.0010276553\N,0,-3.4241571647,0.200842725,0.8634777424\C,0,-2.102455
 4506,-0.2983803564,1.0792717037\O,0,-1.9415644004,-0.9828200848,2.3399
 280476\C,0,-2.0202430551,-0.2595634313,3.4991059205\O,0,-2.0970550695,
 0.9464074618,3.5399733484\C,0,-1.9866437569,-1.1440059127,4.6891834829
 \C,0,-2.6632827196,-2.5064577672,4.652875969\C,0,-1.1725816425,-2.4292
 715452,4.6738407356\C,0,-4.6006130981,-0.6349110797,0.8409567501\H,0,0
 .8209944826,-0.2130920713,-0.689913425\H,0,0.4985606414,-1.278203062,0
 .6946571475\H,0,2.0025288115,-0.3494662549,0.6250158281\H,0,0.37078738
 51,0.6747128823,2.2106133876\H,0,0.8832019739,2.4197940696,-0.25840165
 83\H,0,0.515780871,3.0119797821,1.3737748624\H,0,2.0230741205,2.130828
 0915,1.0668579985\H,0,-1.6600630502,2.9082710285,0.1012064968\H,0,-1.8
 602663571,-1.0999306326,0.3691783952\H,0,-2.0296682666,-0.5824956498,5
 .615559176\H,0,-3.1857326823,-2.8126304667,5.5538973375\H,0,-3.1444460
 959,-2.788570537,3.7226919232\H,0,-0.6380244846,-2.6593894587,3.758717
 0666\H,0,-0.6478033359,-2.6811920136,5.5902636253\H,0,-4.504686088,-1.
 4489746511,0.1090472608\H,0,-4.7928894066,-1.0703543343,1.8277109985\H
 ,0,-5.4403588674,0.0030154443,0.5586175959\\Version=ES64L-G16RevA.03\S
 tate=2-A\HF=-748.1904662\S2=0.751805\S2-1=0.\S2A=0.750002\RMSD=1.083e-
 10\Dipole=2.1789444,0.4504209,-0.7395739\Quadrupole=10.5357363,-3.2260
 35,-7.3097013,4.4358426,-4.0401188,15.2773802\PG=C01 [X(C12H17N1O3)]\\
 @


 VIRTUE IS LEARNED AT YOUR MOTHER'S KNEE,
 VICES ARE PICKED UP AT SOME OTHER JOINT.
 Job cpu time:       0 days  0 hours 56 minutes 51.8 seconds.
 Elapsed time:       0 days  0 hours 14 minutes 52.0 seconds.
 File lengths (MBytes):  RWF=    268 Int=      0 D2E=      0 Chk=     24 Scr=      8
 Normal termination of Gaussian 16 at Fri Dec 11 01:37:02 2020.
