 Entering Gaussian System, Link 0=g16
 Initial command:
 /apps/brussel/CO7/skylake/software/Gaussian/G16.A.03-intel-2017b/g16/l1.exe "/scratch/brussel/102/vsc10255/3570287[3645].master01.hydra.brussel.vsc/Gau-183936.inp" -scrdir="/scratch/brussel/102/vsc10255/3570287[3645].master01.hydra.brussel.vsc/"
 Entering Link 1 = /apps/brussel/CO7/skylake/software/Gaussian/G16.A.03-intel-2017b/g16/l1.exe.bin PID=    183938.
  
 Copyright (c) 1988,1990,1992,1993,1995,1998,2003,2009,2016,
            Gaussian, Inc.  All Rights Reserved.
  
 This is part of the Gaussian(R) 16 program.  It is based on
 the Gaussian(R) 09 system (copyright 2009, Gaussian, Inc.),
 the Gaussian(R) 03 system (copyright 2003, Gaussian, Inc.),
 the Gaussian(R) 98 system (copyright 1998, Gaussian, Inc.),
 the Gaussian(R) 94 system (copyright 1995, Gaussian, Inc.),
 the Gaussian 92(TM) system (copyright 1992, Gaussian, Inc.),
 the Gaussian 90(TM) system (copyright 1990, Gaussian, Inc.),
 the Gaussian 88(TM) system (copyright 1988, Gaussian, Inc.),
 the Gaussian 86(TM) system (copyright 1986, Carnegie Mellon
 University), and the Gaussian 82(TM) system (copyright 1983,
 Carnegie Mellon University). Gaussian is a federally registered
 trademark of Gaussian, Inc.
  
 This software contains proprietary and confidential information,
 including trade secrets, belonging to Gaussian, Inc.
  
 This software is provided under written license and may be
 used, copied, transmitted, or stored only in accord with that
 written license.
  
 The following legend is applicable only to US Government
 contracts under FAR:
  
                    RESTRICTED RIGHTS LEGEND
  
 Use, reproduction and disclosure by the US Government is
 subject to restrictions as set forth in subparagraphs (a)
 and (c) of the Commercial Computer Software - Restricted
 Rights clause in FAR 52.227-19.
  
 Gaussian, Inc.
 340 Quinnipiac St., Bldg. 40, Wallingford CT 06492
  
  
 ---------------------------------------------------------------
 Warning -- This program may not be used in any manner that
 competes with the business of Gaussian, Inc. or will provide
 assistance to any competitor of Gaussian, Inc.  The licensee
 of this program is prohibited from giving any competitor of
 Gaussian, Inc. access to this program.  By using this program,
 the user acknowledges that Gaussian, Inc. is engaged in the
 business of creating and licensing software in the field of
 computational chemistry and represents and warrants to the
 licensee that it is not a competitor of Gaussian, Inc. and that
 it will not use this program in any manner prohibited above.
 ---------------------------------------------------------------
  

 Cite this work as:
 Gaussian 16, Revision A.03,
 M. J. Frisch, G. W. Trucks, H. B. Schlegel, G. E. Scuseria, 
 M. A. Robb, J. R. Cheeseman, G. Scalmani, V. Barone, 
 G. A. Petersson, H. Nakatsuji, X. Li, M. Caricato, A. V. Marenich, 
 J. Bloino, B. G. Janesko, R. Gomperts, B. Mennucci, H. P. Hratchian, 
 J. V. Ortiz, A. F. Izmaylov, J. L. Sonnenberg, D. Williams-Young, 
 F. Ding, F. Lipparini, F. Egidi, J. Goings, B. Peng, A. Petrone, 
 T. Henderson, D. Ranasinghe, V. G. Zakrzewski, J. Gao, N. Rega, 
 G. Zheng, W. Liang, M. Hada, M. Ehara, K. Toyota, R. Fukuda, 
 J. Hasegawa, M. Ishida, T. Nakajima, Y. Honda, O. Kitao, H. Nakai, 
 T. Vreven, K. Throssell, J. A. Montgomery, Jr., J. E. Peralta, 
 F. Ogliaro, M. J. Bearpark, J. J. Heyd, E. N. Brothers, K. N. Kudin, 
 V. N. Staroverov, T. A. Keith, R. Kobayashi, J. Normand, 
 K. Raghavachari, A. P. Rendell, J. C. Burant, S. S. Iyengar, 
 J. Tomasi, M. Cossi, J. M. Millam, M. Klene, C. Adamo, R. Cammi, 
 J. W. Ochterski, R. L. Martin, K. Morokuma, O. Farkas, 
 J. B. Foresman, and D. J. Fox, Gaussian, Inc., Wallingford CT, 2016.
 
 ******************************************
 Gaussian 16:  ES64L-G16RevA.03 25-Dec-2016
                13-Dec-2020 
 ******************************************
 %chk=JID_3645.chk
 %mem=8GB
 %nprocshared=4
 Will use up to    4 processors via shared memory.
 -----------------------------------------------------------
 # opt freq B3LYP/6-31G(d) empiricaldispersion=gd3bj scf=xqc
 -----------------------------------------------------------
 1/18=20,19=15,26=3,38=1/1,3;
 2/9=110,12=2,17=6,18=5,40=1/2;
 3/5=1,6=6,7=1,11=2,25=1,30=1,71=1,74=-5,124=41/1,2,3;
 4//1;
 5/5=2,8=3,13=1,38=5/2,8;
 6/7=2,8=2,9=2,10=2,28=1/1;
 7//1,2,3,16;
 1/18=20,19=15,26=3/3(2);
 2/9=110/2;
 99//99;
 2/9=110/2;
 3/5=1,6=6,7=1,11=2,25=1,30=1,71=1,74=-5,124=41/1,2,3;
 4/5=5,16=3,69=1/1;
 5/5=2,8=3,13=1,38=5/2,8;
 7//1,2,3,16;
 1/18=20,19=15,26=3/3(-5);
 2/9=110/2;
 6/7=2,8=2,9=2,10=2,19=2,28=1/1;
 99/9=1/99;
 ------------------------------
 CID_23374598_JID_3645_neutraal
 ------------------------------
 Symbolic Z-matrix:
 Charge =  0 Multiplicity = 1
 C                     1.06384   0.05117   0.0575 
 O                     1.18661   0.02461   1.46831 
 C                     1.81558  -1.1425    2.00311 
 C                     0.97445  -2.42348   1.8428 
 C                     1.04619  -3.20789   0.52257 
 C                     2.39307  -3.86382   0.18605 
 N                     2.89515  -4.73488   1.26144 
 C                     4.31146  -5.0736    1.05246 
 C                     4.31409  -6.24626   0.08561 
 C                     2.96973  -6.92787   0.29863 
 C                     2.22348  -6.04283   1.28955 
 O                     3.14872  -1.29922   1.53574 
 C                     4.0178   -0.29558   2.0408 
 H                     0.92181   1.09202  -0.24787 
 H                     0.17282  -0.50091  -0.25003 
 H                     1.95458  -0.33251  -0.44769 
 H                     1.85713  -0.96243   3.08554 
 H                     1.26139  -3.1118    2.64796 
 H                    -0.07727  -2.16476   2.02133 
 H                     0.27561  -3.98843   0.56395 
 H                     0.75774  -2.57217  -0.31805 
 H                     2.28549  -4.41592  -0.75677 
 H                     3.11716  -3.07082  -0.0272 
 H                     4.7403   -5.38688   2.01258 
 H                     4.91857  -4.23332   0.69763 
 H                     4.39253  -5.89416  -0.94956 
 H                     5.15108  -6.92598   0.27332 
 H                     2.42967  -6.9956   -0.65264 
 H                     3.0921   -7.9431    0.68937 
 H                     1.15008  -6.00226   1.08188 
 H                     2.32823  -6.46141   2.29873 
 H                     3.69761   0.69903   1.71674 
 H                     4.06512  -0.33995   3.13323 
 H                     5.01987  -0.48121   1.64478 
 

 GradGradGradGradGradGradGradGradGradGradGradGradGradGradGradGradGradGrad
 Berny optimization.
 Initialization pass.
                           ----------------------------
                           !    Initial Parameters    !
                           ! (Angstroms and Degrees)  !
 --------------------------                            --------------------------
 ! Name  Definition              Value          Derivative Info.                !
 --------------------------------------------------------------------------------
 ! R1    R(1,2)                  1.4164         estimate D2E/DX2                !
 ! R2    R(1,14)                 1.094          estimate D2E/DX2                !
 ! R3    R(1,15)                 1.0924         estimate D2E/DX2                !
 ! R4    R(1,16)                 1.0935         estimate D2E/DX2                !
 ! R5    R(2,3)                  1.4296         estimate D2E/DX2                !
 ! R6    R(3,4)                  1.5408         estimate D2E/DX2                !
 ! R7    R(3,12)                 1.4214         estimate D2E/DX2                !
 ! R8    R(3,17)                 1.0981         estimate D2E/DX2                !
 ! R9    R(4,5)                  1.5374         estimate D2E/DX2                !
 ! R10   R(4,18)                 1.0975         estimate D2E/DX2                !
 ! R11   R(4,19)                 1.0977         estimate D2E/DX2                !
 ! R12   R(5,6)                  1.5354         estimate D2E/DX2                !
 ! R13   R(5,20)                 1.0976         estimate D2E/DX2                !
 ! R14   R(5,21)                 1.0927         estimate D2E/DX2                !
 ! R15   R(6,7)                  1.4722         estimate D2E/DX2                !
 ! R16   R(6,22)                 1.0979         estimate D2E/DX2                !
 ! R17   R(6,23)                 1.0948         estimate D2E/DX2                !
 ! R18   R(7,8)                  1.4712         estimate D2E/DX2                !
 ! R19   R(7,11)                 1.4706         estimate D2E/DX2                !
 ! R20   R(8,9)                  1.5198         estimate D2E/DX2                !
 ! R21   R(8,24)                 1.0972         estimate D2E/DX2                !
 ! R22   R(8,25)                 1.0957         estimate D2E/DX2                !
 ! R23   R(9,10)                 1.5223         estimate D2E/DX2                !
 ! R24   R(9,26)                 1.0962         estimate D2E/DX2                !
 ! R25   R(9,27)                 1.0944         estimate D2E/DX2                !
 ! R26   R(10,11)                1.5238         estimate D2E/DX2                !
 ! R27   R(10,28)                1.096          estimate D2E/DX2                !
 ! R28   R(10,29)                1.0947         estimate D2E/DX2                !
 ! R29   R(11,30)                1.0941         estimate D2E/DX2                !
 ! R30   R(11,31)                1.0976         estimate D2E/DX2                !
 ! R31   R(12,13)                1.4205         estimate D2E/DX2                !
 ! R32   R(13,32)                1.094          estimate D2E/DX2                !
 ! R33   R(13,33)                1.0944         estimate D2E/DX2                !
 ! R34   R(13,34)                1.0934         estimate D2E/DX2                !
 ! A1    A(2,1,14)             107.8864         estimate D2E/DX2                !
 ! A2    A(2,1,15)             109.9767         estimate D2E/DX2                !
 ! A3    A(2,1,16)             112.5179         estimate D2E/DX2                !
 ! A4    A(14,1,15)            107.2396         estimate D2E/DX2                !
 ! A5    A(14,1,16)            108.0963         estimate D2E/DX2                !
 ! A6    A(15,1,16)            110.9173         estimate D2E/DX2                !
 ! A7    A(1,2,3)              115.2178         estimate D2E/DX2                !
 ! A8    A(2,3,4)              113.5545         estimate D2E/DX2                !
 ! A9    A(2,3,12)             112.3128         estimate D2E/DX2                !
 ! A10   A(2,3,17)             104.5679         estimate D2E/DX2                !
 ! A11   A(4,3,12)             112.7145         estimate D2E/DX2                !
 ! A12   A(4,3,17)             105.0431         estimate D2E/DX2                !
 ! A13   A(12,3,17)            107.8617         estimate D2E/DX2                !
 ! A14   A(3,4,5)              119.2135         estimate D2E/DX2                !
 ! A15   A(3,4,18)             107.5999         estimate D2E/DX2                !
 ! A16   A(3,4,19)             108.0693         estimate D2E/DX2                !
 ! A17   A(5,4,18)             107.3272         estimate D2E/DX2                !
 ! A18   A(5,4,19)             107.7366         estimate D2E/DX2                !
 ! A19   A(18,4,19)            106.2014         estimate D2E/DX2                !
 ! A20   A(4,5,6)              116.5589         estimate D2E/DX2                !
 ! A21   A(4,5,20)             107.3198         estimate D2E/DX2                !
 ! A22   A(4,5,21)             110.5785         estimate D2E/DX2                !
 ! A23   A(6,5,20)             108.6817         estimate D2E/DX2                !
 ! A24   A(6,5,21)             108.1491         estimate D2E/DX2                !
 ! A25   A(20,5,21)            104.9159         estimate D2E/DX2                !
 ! A26   A(5,6,7)              113.0684         estimate D2E/DX2                !
 ! A27   A(5,6,22)             108.4871         estimate D2E/DX2                !
 ! A28   A(5,6,23)             108.2656         estimate D2E/DX2                !
 ! A29   A(7,6,22)             111.2962         estimate D2E/DX2                !
 ! A30   A(7,6,23)             110.1995         estimate D2E/DX2                !
 ! A31   A(22,6,23)            105.1761         estimate D2E/DX2                !
 ! A32   A(6,7,8)              111.1489         estimate D2E/DX2                !
 ! A33   A(6,7,11)             112.6089         estimate D2E/DX2                !
 ! A34   A(8,7,11)             103.7474         estimate D2E/DX2                !
 ! A35   A(7,8,9)              105.6449         estimate D2E/DX2                !
 ! A36   A(7,8,24)             108.5243         estimate D2E/DX2                !
 ! A37   A(7,8,25)             113.7569         estimate D2E/DX2                !
 ! A38   A(9,8,24)             109.6144         estimate D2E/DX2                !
 ! A39   A(9,8,25)             112.6273         estimate D2E/DX2                !
 ! A40   A(24,8,25)            106.6055         estimate D2E/DX2                !
 ! A41   A(8,9,10)             104.7693         estimate D2E/DX2                !
 ! A42   A(8,9,26)             110.6723         estimate D2E/DX2                !
 ! A43   A(8,9,27)             111.8024         estimate D2E/DX2                !
 ! A44   A(10,9,26)            109.8253         estimate D2E/DX2                !
 ! A45   A(10,9,27)            111.9192         estimate D2E/DX2                !
 ! A46   A(26,9,27)            107.8616         estimate D2E/DX2                !
 ! A47   A(9,10,11)            105.2733         estimate D2E/DX2                !
 ! A48   A(9,10,28)            109.9615         estimate D2E/DX2                !
 ! A49   A(9,10,29)            111.4992         estimate D2E/DX2                !
 ! A50   A(11,10,28)           111.0384         estimate D2E/DX2                !
 ! A51   A(11,10,29)           111.1781         estimate D2E/DX2                !
 ! A52   A(28,10,29)           107.9137         estimate D2E/DX2                !
 ! A53   A(7,11,10)            106.2876         estimate D2E/DX2                !
 ! A54   A(7,11,30)            114.2991         estimate D2E/DX2                !
 ! A55   A(7,11,31)            108.251          estimate D2E/DX2                !
 ! A56   A(10,11,30)           112.2453         estimate D2E/DX2                !
 ! A57   A(10,11,31)           109.2492         estimate D2E/DX2                !
 ! A58   A(30,11,31)           106.3983         estimate D2E/DX2                !
 ! A59   A(3,12,13)            112.2741         estimate D2E/DX2                !
 ! A60   A(12,13,32)           110.9766         estimate D2E/DX2                !
 ! A61   A(12,13,33)           110.6554         estimate D2E/DX2                !
 ! A62   A(12,13,34)           108.18           estimate D2E/DX2                !
 ! A63   A(32,13,33)           110.1951         estimate D2E/DX2                !
 ! A64   A(32,13,34)           108.3797         estimate D2E/DX2                !
 ! A65   A(33,13,34)           108.3641         estimate D2E/DX2                !
 ! D1    D(14,1,2,3)          -159.6871         estimate D2E/DX2                !
 ! D2    D(15,1,2,3)            83.6543         estimate D2E/DX2                !
 ! D3    D(16,1,2,3)           -40.5353         estimate D2E/DX2                !
 ! D4    D(1,2,3,4)            -68.3754         estimate D2E/DX2                !
 ! D5    D(1,2,3,12)            60.988          estimate D2E/DX2                !
 ! D6    D(1,2,3,17)           177.6811         estimate D2E/DX2                !
 ! D7    D(2,3,4,5)             84.3177         estimate D2E/DX2                !
 ! D8    D(2,3,4,18)          -153.3132         estimate D2E/DX2                !
 ! D9    D(2,3,4,19)           -39.0207         estimate D2E/DX2                !
 ! D10   D(12,3,4,5)           -44.842          estimate D2E/DX2                !
 ! D11   D(12,3,4,18)           77.5271         estimate D2E/DX2                !
 ! D12   D(12,3,4,19)         -168.1804         estimate D2E/DX2                !
 ! D13   D(17,3,4,5)          -162.0236         estimate D2E/DX2                !
 ! D14   D(17,3,4,18)          -39.6545         estimate D2E/DX2                !
 ! D15   D(17,3,4,19)           74.638          estimate D2E/DX2                !
 ! D16   D(2,3,12,13)           68.1556         estimate D2E/DX2                !
 ! D17   D(4,3,12,13)         -162.0469         estimate D2E/DX2                !
 ! D18   D(17,3,12,13)         -46.5466         estimate D2E/DX2                !
 ! D19   D(3,4,5,6)             65.8726         estimate D2E/DX2                !
 ! D20   D(3,4,5,20)          -172.0552         estimate D2E/DX2                !
 ! D21   D(3,4,5,21)           -58.1588         estimate D2E/DX2                !
 ! D22   D(18,4,5,6)           -56.6315         estimate D2E/DX2                !
 ! D23   D(18,4,5,20)           65.4407         estimate D2E/DX2                !
 ! D24   D(18,4,5,21)          179.3372         estimate D2E/DX2                !
 ! D25   D(19,4,5,6)          -170.6261         estimate D2E/DX2                !
 ! D26   D(19,4,5,20)          -48.5539         estimate D2E/DX2                !
 ! D27   D(19,4,5,21)           65.3426         estimate D2E/DX2                !
 ! D28   D(4,5,6,7)             53.916          estimate D2E/DX2                !
 ! D29   D(4,5,6,22)           177.8769         estimate D2E/DX2                !
 ! D30   D(4,5,6,23)           -68.4807         estimate D2E/DX2                !
 ! D31   D(20,5,6,7)           -67.44           estimate D2E/DX2                !
 ! D32   D(20,5,6,22)           56.5208         estimate D2E/DX2                !
 ! D33   D(20,5,6,23)          170.1633         estimate D2E/DX2                !
 ! D34   D(21,5,6,7)           179.1829         estimate D2E/DX2                !
 ! D35   D(21,5,6,22)          -56.8563         estimate D2E/DX2                !
 ! D36   D(21,5,6,23)           56.7862         estimate D2E/DX2                !
 ! D37   D(5,6,7,8)           -166.0066         estimate D2E/DX2                !
 ! D38   D(5,6,7,11)            78.0734         estimate D2E/DX2                !
 ! D39   D(22,6,7,8)            71.587          estimate D2E/DX2                !
 ! D40   D(22,6,7,11)          -44.333          estimate D2E/DX2                !
 ! D41   D(23,6,7,8)           -44.6958         estimate D2E/DX2                !
 ! D42   D(23,6,7,11)         -160.6158         estimate D2E/DX2                !
 ! D43   D(6,7,8,9)            -83.2938         estimate D2E/DX2                !
 ! D44   D(6,7,8,24)           159.2231         estimate D2E/DX2                !
 ! D45   D(6,7,8,25)            40.7477         estimate D2E/DX2                !
 ! D46   D(11,7,8,9)            37.9715         estimate D2E/DX2                !
 ! D47   D(11,7,8,24)          -79.5116         estimate D2E/DX2                !
 ! D48   D(11,7,8,25)          162.013          estimate D2E/DX2                !
 ! D49   D(6,7,11,10)           85.3283         estimate D2E/DX2                !
 ! D50   D(6,7,11,30)          -39.0503         estimate D2E/DX2                !
 ! D51   D(6,7,11,31)         -157.413          estimate D2E/DX2                !
 ! D52   D(8,7,11,10)          -34.9524         estimate D2E/DX2                !
 ! D53   D(8,7,11,30)         -159.331          estimate D2E/DX2                !
 ! D54   D(8,7,11,31)           82.3063         estimate D2E/DX2                !
 ! D55   D(7,8,9,10)           -26.1627         estimate D2E/DX2                !
 ! D56   D(7,8,9,26)            92.1547         estimate D2E/DX2                !
 ! D57   D(7,8,9,27)          -147.5793         estimate D2E/DX2                !
 ! D58   D(24,8,9,10)           90.5846         estimate D2E/DX2                !
 ! D59   D(24,8,9,26)         -151.0981         estimate D2E/DX2                !
 ! D60   D(24,8,9,27)          -30.832          estimate D2E/DX2                !
 ! D61   D(25,8,9,10)         -150.9111         estimate D2E/DX2                !
 ! D62   D(25,8,9,26)          -32.5938         estimate D2E/DX2                !
 ! D63   D(25,8,9,27)           87.6723         estimate D2E/DX2                !
 ! D64   D(8,9,10,11)            4.6068         estimate D2E/DX2                !
 ! D65   D(8,9,10,28)          124.2835         estimate D2E/DX2                !
 ! D66   D(8,9,10,29)         -116.0611         estimate D2E/DX2                !
 ! D67   D(26,9,10,11)        -114.2834         estimate D2E/DX2                !
 ! D68   D(26,9,10,28)           5.3933         estimate D2E/DX2                !
 ! D69   D(26,9,10,29)         125.0486         estimate D2E/DX2                !
 ! D70   D(27,9,10,11)         125.9466         estimate D2E/DX2                !
 ! D71   D(27,9,10,28)        -114.3767         estimate D2E/DX2                !
 ! D72   D(27,9,10,29)           5.2787         estimate D2E/DX2                !
 ! D73   D(9,10,11,7)           18.4929         estimate D2E/DX2                !
 ! D74   D(9,10,11,30)         144.1327         estimate D2E/DX2                !
 ! D75   D(9,10,11,31)         -98.0986         estimate D2E/DX2                !
 ! D76   D(28,10,11,7)        -100.4668         estimate D2E/DX2                !
 ! D77   D(28,10,11,30)         25.1729         estimate D2E/DX2                !
 ! D78   D(28,10,11,31)        142.9416         estimate D2E/DX2                !
 ! D79   D(29,10,11,7)         139.3715         estimate D2E/DX2                !
 ! D80   D(29,10,11,30)        -94.9888         estimate D2E/DX2                !
 ! D81   D(29,10,11,31)         22.78           estimate D2E/DX2                !
 ! D82   D(3,12,13,32)         -61.4426         estimate D2E/DX2                !
 ! D83   D(3,12,13,33)          61.2174         estimate D2E/DX2                !
 ! D84   D(3,12,13,34)         179.7844         estimate D2E/DX2                !
 --------------------------------------------------------------------------------
 Trust Radius=3.00D-01 FncErr=1.00D-07 GrdErr=1.00D-06 EigMax=2.50D+02 EigMin=1.00D-04
 Number of steps in this run=    193 maximum allowed number of steps=    204.
 GradGradGradGradGradGradGradGradGradGradGradGradGradGradGradGradGradGrad

                          Input orientation:                          
 ---------------------------------------------------------------------
 Center     Atomic      Atomic             Coordinates (Angstroms)
 Number     Number       Type             X           Y           Z
 ---------------------------------------------------------------------
      1          6           0        1.063840    0.051170    0.057500
      2          8           0        1.186610    0.024610    1.468310
      3          6           0        1.815580   -1.142500    2.003110
      4          6           0        0.974450   -2.423480    1.842800
      5          6           0        1.046190   -3.207890    0.522570
      6          6           0        2.393070   -3.863820    0.186050
      7          7           0        2.895150   -4.734880    1.261440
      8          6           0        4.311460   -5.073600    1.052460
      9          6           0        4.314090   -6.246260    0.085610
     10          6           0        2.969730   -6.927870    0.298630
     11          6           0        2.223480   -6.042830    1.289550
     12          8           0        3.148720   -1.299220    1.535740
     13          6           0        4.017800   -0.295580    2.040800
     14          1           0        0.921810    1.092020   -0.247870
     15          1           0        0.172820   -0.500910   -0.250030
     16          1           0        1.954580   -0.332510   -0.447690
     17          1           0        1.857130   -0.962430    3.085540
     18          1           0        1.261390   -3.111800    2.647960
     19          1           0       -0.077270   -2.164760    2.021330
     20          1           0        0.275610   -3.988430    0.563950
     21          1           0        0.757740   -2.572170   -0.318050
     22          1           0        2.285490   -4.415920   -0.756770
     23          1           0        3.117160   -3.070820   -0.027200
     24          1           0        4.740300   -5.386880    2.012580
     25          1           0        4.918570   -4.233320    0.697630
     26          1           0        4.392530   -5.894160   -0.949560
     27          1           0        5.151080   -6.925980    0.273320
     28          1           0        2.429670   -6.995600   -0.652640
     29          1           0        3.092100   -7.943100    0.689370
     30          1           0        1.150080   -6.002260    1.081880
     31          1           0        2.328230   -6.461410    2.298730
     32          1           0        3.697610    0.699030    1.716740
     33          1           0        4.065120   -0.339950    3.133230
     34          1           0        5.019870   -0.481210    1.644780
 ---------------------------------------------------------------------
                    Distance matrix (angstroms):
                    1          2          3          4          5
     1  C    0.000000
     2  O    1.416391   0.000000
     3  C    2.403198   1.429601   0.000000
     4  C    3.052733   2.485639   1.540814   0.000000
     5  C    3.292123   3.370934   2.655145   1.537353   0.000000
     6  C    4.136487   4.268445   3.322768   2.613787   1.535440
     7  N    5.263976   5.061092   3.823708   3.060986   2.509239
     8  C    6.148191   5.994111   4.752547   4.333983   3.797847
     9  C    7.086786   7.142605   5.997310   5.371644   4.483503
    10  C    7.238616   7.272183   6.140669   5.162861   4.193853
    11  C    6.324520   6.157993   4.968781   3.868573   3.164041
    12  O    2.890583   2.367900   1.421358   2.466920   3.014990
    13  C    3.574856   2.906184   2.359760   3.718755   4.429113
    14  H    1.093980   2.038322   3.295272   4.090527   4.370157
    15  H    1.092375   2.063161   2.861283   2.952765   2.947444
    16  H    1.093547   2.094843   2.584923   3.252561   3.167710
    17  H    3.290246   2.009795   1.098092   2.111444   3.502646
    18  H    4.093151   3.351751   2.145018   1.097452   2.138417
    19  H    3.173185   2.587772   2.151332   1.097690   2.143960
    20  H    4.146826   4.213345   3.541470   2.138435   1.097610
    21  H    2.667705   3.180924   2.924169   2.176774   1.092696
    22  H    4.702165   5.086927   4.307323   3.527947   2.152188
    23  H    3.737662   3.942748   3.087829   2.916703   2.147080
    24  H    6.849167   6.496858   5.154497   4.795017   4.540328
    25  H    5.798755   5.714144   4.570120   4.488097   4.009673
    26  H    6.887764   7.152332   6.159318   5.614817   4.536651
    27  H    8.089050   8.090471   6.896838   6.338771   5.544046
    28  H    7.212958   7.438211   6.456694   5.408250   4.200224
    29  H    8.271726   8.229340   7.042981   6.023375   5.160987
    30  H    6.140098   6.039356   4.990874   3.662992   2.851688
    31  H    7.002535   6.637872   5.351729   4.283161   3.922214
    32  H    3.179551   2.611835   2.648637   4.145065   4.870328
    33  H    4.315179   3.345248   2.642288   3.944433   4.914729
    34  H    4.295702   3.870514   3.291380   4.491887   4.948158
                    6          7          8          9         10
     6  C    0.000000
     7  N    1.472173   0.000000
     8  C    2.427850   1.471169   0.000000
     9  C    3.062095   2.383325   1.519848   0.000000
    10  C    3.119874   2.396199   2.409734   1.522259   0.000000
    11  C    2.448379   1.470600   2.314148   2.421055   1.523846
    12  O    2.994970   3.455908   3.978878   5.285279   5.765777
    13  C    4.337301   4.644904   4.887998   6.270658   6.936921
    14  H    5.187797   6.334418   7.155100   8.091299   8.295256
    15  H    4.053250   5.255675   6.303516   7.090262   7.030615
    16  H    3.614423   4.815253   5.503024   6.389377   6.714633
    17  H    4.136706   4.316967   5.201814   6.554013   6.677666
    18  H    2.811981   2.688122   3.961970   5.070449   4.795849
    19  H    3.515343   4.002278   5.353598   6.299976   5.910932
    20  H    2.154524   2.811702   4.207650   4.651443   3.996121
    21  H    2.144010   3.426460   4.556794   5.129279   4.923953
    22  H    1.097860   2.132274   2.794711   2.859190   2.809261
    23  H    1.094820   2.116359   2.569659   3.395407   3.873595
    24  H    3.341469   2.096162   1.097214   2.152534   2.906405
    25  H    2.603151   2.159554   1.095699   2.189039   3.349295
    26  H    3.067528   2.911116   2.165173   1.096223   2.156593
    27  H    4.122021   3.296441   2.177919   1.094444   2.181498
    28  H    3.242343   2.998538   3.184742   2.158139   1.095978
    29  H    4.169232   3.264771   3.138902   2.176477   1.094689
    30  H    2.630677   2.164200   3.295087   3.326116   2.186632
    31  H    3.348895   2.092433   2.722574   2.981246   2.151629
    32  H    4.986425   5.511680   5.843059   7.160844   7.791691
    33  H    4.888689   4.918113   5.176652   6.650900   7.255035
    34  H    4.524381   4.770230   4.684307   6.013729   6.897436
                   11         12         13         14         15
    11  C    0.000000
    12  O    4.839268   0.000000
    13  C    6.067524   1.420450   0.000000
    14  H    7.413777   3.722690   4.092505   0.000000
    15  H    6.106422   3.561215   4.480394   1.760232   0.000000
    16  H    5.974786   2.508883   3.232773   1.770827   1.800582
    17  H    5.400950   2.045364   2.490917   4.025818   3.765093
    18  H    3.370732   2.843324   3.987171   5.115980   4.049701
    19  H    4.568192   3.375199   4.501534   4.093171   2.826662
    20  H    2.922542   4.053515   5.460972   5.185325   3.582726
    21  H    4.096127   3.282335   4.623313   3.668533   2.153341
    22  H    2.614977   3.964163   5.272997   5.697017   4.477439
    23  H    3.371252   2.362698   3.576274   4.711422   3.914490
    24  H    2.699523   4.412422   5.142386   7.852811   7.060735
    25  H    3.299728   3.527569   4.256911   6.725125   6.111554
    26  H    3.120976   5.370033   6.358205   7.832303   6.883490
    27  H    3.222347   6.104390   6.954891   9.080016   8.144845
    28  H    2.173105   6.144492   7.393717   8.236934   6.887414
    29  H    2.173877   6.697812   7.820988   9.339270   8.049277
    30  H    1.094057   5.130218   6.458293   7.221437   5.744029
    31  H    1.097555   5.282382   6.398331   8.094288   6.831510
    32  H    6.914349   2.080155   1.093977   3.423332   4.210960
    33  H    6.270059   2.076526   1.094354   4.833505   5.159686
    34  H    6.235191   2.045051   1.093359   4.780300   5.204285
                   16         17         18         19         20
    16  H    0.000000
    17  H    3.590266   0.000000
    18  H    4.217584   2.272922   0.000000
    19  H    3.685324   2.513970   1.755437   0.000000
    20  H    4.148266   4.244561   2.466443   2.360986   0.000000
    21  H    2.542697   3.922288   3.056482   2.517126   1.736711
    22  H    4.108439   5.183959   3.787043   4.285813   2.442676
    23  H    3.004454   3.965115   3.256078   3.901513   3.043990
    24  H    6.273741   5.388847   4.205058   5.795784   4.897719
    25  H    5.031234   5.076736   4.293782   5.566825   4.651335
    26  H    6.093228   6.858006   5.521568   6.535574   4.782421
    27  H    7.362833   7.370388   5.942775   7.284257   5.699463
    28  H    6.683149   7.120459   5.229029   6.063982   3.893987
    29  H    7.778685   7.483083   5.525308   6.723707   4.856723
    30  H    5.927299   5.469411   3.289340   4.137071   2.255762
    31  H    6.726504   5.574925   3.532704   4.931996   3.652169
    32  H    2.964285   2.832213   4.617874   4.748030   5.917034
    33  H    4.156612   2.294553   3.972347   4.661078   5.854314
    34  H    3.714370   3.508602   4.696014   5.381168   5.998065
                   21         22         23         24         25
    21  H    0.000000
    22  H    2.434319   0.000000
    23  H    2.429014   1.741620   0.000000
    24  H    5.405110   3.825984   3.487036   0.000000
    25  H    4.593858   3.013591   2.263153   1.758287   0.000000
    26  H    4.964486   2.581081   3.232424   3.025318   2.397570
    27  H    6.213438   3.946276   4.369142   2.358515   2.735785
    28  H    4.740679   2.585804   4.033326   3.876905   3.955761
    29  H    5.942308   3.896529   4.924755   3.316882   4.135037
    30  H    3.725487   2.680721   3.700379   3.759598   4.180707
    31  H    4.943699   3.677219   4.186701   2.656046   3.773297
    32  H    4.846025   5.854490   4.194046   6.181668   5.182413
    33  H    5.275690   5.908698   4.283059   5.213754   4.671066
    34  H    5.137175   5.359685   3.622417   4.927376   3.871135
                   26         27         28         29         30
    26  H    0.000000
    27  H    1.770730   0.000000
    28  H    2.270276   2.875469   0.000000
    29  H    2.928372   2.333887   1.771316   0.000000
    30  H    3.827782   4.185096   2.373317   2.773511   0.000000
    31  H    3.890308   3.505224   3.001039   2.317098   1.754873
    32  H    7.145784   7.895367   8.150397   8.724021   7.197239
    33  H    6.901132   7.261831   7.829763   8.045316   6.690833
    34  H    6.035245   6.590385   7.377300   7.765881   6.765658
                   31         32         33         34
    31  H    0.000000
    32  H    7.313400   0.000000
    33  H    6.417589   1.794711   0.000000
    34  H    6.590551   1.773842   1.773974   0.000000
 Stoichiometry    C10H21NO2
 Framework group  C1[X(C10H21NO2)]
 Deg. of freedom    96
 Full point group                 C1      NOp   1
 Largest Abelian subgroup         C1      NOp   1
 Largest concise Abelian subgroup C1      NOp   1
                         Standard orientation:                         
 ---------------------------------------------------------------------
 Center     Atomic      Atomic             Coordinates (Angstroms)
 Number     Number       Type             X           Y           Z
 ---------------------------------------------------------------------
      1          6           0        3.275504   -0.934503    1.199616
      2          8           0        3.394621   -0.485060   -0.138284
      3          6           0        2.185649   -0.001168   -0.728197
      4          6           0        1.135255   -1.102056   -0.970739
      5          6           0        0.199781   -1.512748    0.178032
      6          6           0       -0.797606   -0.451337    0.664038
      7          7           0       -1.624249    0.103026   -0.420690
      8          6           0       -2.317235    1.326407    0.012264
      9          6           0       -3.566176    0.854757    0.738644
     10          6           0       -3.872266   -0.510129    0.138086
     11          6           0       -2.718146   -0.797482   -0.814565
     12          8           0        1.655986    1.118916   -0.031686
     13          6           0        2.475242    2.271748   -0.163881
     14          1           0        4.273994   -0.927529    1.646564
     15          1           0        2.920636   -1.967499    1.216096
     16          1           0        2.629227   -0.290014    1.801948
     17          1           0        2.482684    0.335124   -1.730436
     18          1           0        0.502968   -0.778860   -1.807494
     19          1           0        1.659660   -2.003424   -1.313462
     20          1           0       -0.360932   -2.394972   -0.156676
     21          1           0        0.777415   -1.856747    1.039420
     22          1           0       -1.419640   -0.893603    1.453198
     23          1           0       -0.234930    0.348127    1.156870
     24          1           0       -2.603515    1.898838   -0.878940
     25          1           0       -1.698357    1.990705    0.625661
     26          1           0       -3.373965    0.753529    1.813126
     27          1           0       -4.398918    1.553357    0.610947
     28          1           0       -3.924896   -1.264625    0.931264
     29          1           0       -4.830812   -0.509979   -0.390623
     30          1           0       -2.446228   -1.857123   -0.828032
     31          1           0       -3.021684   -0.542450   -1.838015
     32          1           0        3.469816    2.095691    0.256371
     33          1           0        2.556060    2.569560   -1.213828
     34          1           0        2.006294    3.088936    0.390850
 ---------------------------------------------------------------------
 Rotational constants (GHZ):           1.5385464           0.3924147           0.3519668
 Standard basis: 6-31G(d) (6D, 7F)
 There are   237 symmetry adapted cartesian basis functions of A   symmetry.
 There are   237 symmetry adapted basis functions of A   symmetry.
   237 basis functions,   448 primitive gaussians,   237 cartesian basis functions
    52 alpha electrons       52 beta electrons
       nuclear repulsion energy       896.7757310486 Hartrees.
 NAtoms=   34 NActive=   34 NUniq=   34 SFac= 1.00D+00 NAtFMM=   60 NAOKFM=F Big=F
 Integral buffers will be    131072 words long.
 Raffenetti 2 integral format.
 Two-electron integral symmetry is turned on.
 Nuclear repulsion after empirical dispersion term =      896.7198208862 Hartrees.
 One-electron integrals computed using PRISM.
 NBasis=   237 RedAO= T EigKep=  2.70D-03  NBF=   237
 NBsUse=   237 1.00D-06 EigRej= -1.00D+00 NBFU=   237
 ExpMin= 1.61D-01 ExpMax= 5.48D+03 ExpMxC= 8.25D+02 IAcc=3 IRadAn=         5 AccDes= 0.00D+00
 Harris functional with IExCor=  402 and IRadAn=       5 diagonalized for initial guess.
 HarFok:  IExCor=  402 AccDes= 0.00D+00 IRadAn=         5 IDoV= 1 UseB2=F ITyADJ=14
 ICtDFT=  3500011 ScaDFX=  1.000000  1.000000  1.000000  1.000000
 FoFCou: FMM=F IPFlag=           0 FMFlag=      100000 FMFlg1=           0
         NFxFlg=           0 DoJE=T BraDBF=F KetDBF=T FulRan=T
         wScrn=  0.000000 ICntrl=       500 IOpCl=  0 I1Cent=   200000004 NGrid=           0
         NMat0=    1 NMatS0=      1 NMatT0=    0 NMatD0=    1 NMtDS0=    0 NMtDT0=    0
 Petite list used in FoFCou.
 Keep R1 ints in memory in canonical form, NReq=404461113.
 Requested convergence on RMS density matrix=1.00D-08 within  32 cycles.
 Requested convergence on MAX density matrix=1.00D-06.
 Requested convergence on             energy=1.00D-06.
 No special actions if energy rises.
 Integral accuracy reduced to 1.0D-05 until final iterations.
 Initial convergence to 1.0D-05 achieved.  Increase integral accuracy.
 SCF Done:  E(RB3LYP) =  -598.915581275     A.U. after   13 cycles
            NFock= 13  Conv=0.54D-08     -V/T= 2.0093
 QCSCF skips out because SCF is already converged.

 **********************************************************************

            Population analysis using the SCF density.

 **********************************************************************

 Orbital symmetries:
       Occupied  (A) (A) (A) (A) (A) (A) (A) (A) (A) (A) (A) (A)
                 (A) (A) (A) (A) (A) (A) (A) (A) (A) (A) (A) (A)
                 (A) (A) (A) (A) (A) (A) (A) (A) (A) (A) (A) (A)
                 (A) (A) (A) (A) (A) (A) (A) (A) (A) (A) (A) (A)
                 (A) (A) (A) (A)
       Virtual   (A) (A) (A) (A) (A) (A) (A) (A) (A) (A) (A) (A)
                 (A) (A) (A) (A) (A) (A) (A) (A) (A) (A) (A) (A)
                 (A) (A) (A) (A) (A) (A) (A) (A) (A) (A) (A) (A)
                 (A) (A) (A) (A) (A) (A) (A) (A) (A) (A) (A) (A)
                 (A) (A) (A) (A) (A) (A) (A) (A) (A) (A) (A) (A)
                 (A) (A) (A) (A) (A) (A) (A) (A) (A) (A) (A) (A)
                 (A) (A) (A) (A) (A) (A) (A) (A) (A) (A) (A) (A)
                 (A) (A) (A) (A) (A) (A) (A) (A) (A) (A) (A) (A)
                 (A) (A) (A) (A) (A) (A) (A) (A) (A) (A) (A) (A)
                 (A) (A) (A) (A) (A) (A) (A) (A) (A) (A) (A) (A)
                 (A) (A) (A) (A) (A) (A) (A) (A) (A) (A) (A) (A)
                 (A) (A) (A) (A) (A) (A) (A) (A) (A) (A) (A) (A)
                 (A) (A) (A) (A) (A) (A) (A) (A) (A) (A) (A) (A)
                 (A) (A) (A) (A) (A) (A) (A) (A) (A) (A) (A) (A)
                 (A) (A) (A) (A) (A) (A) (A) (A) (A) (A) (A) (A)
                 (A) (A) (A) (A) (A)
 The electronic state is 1-A.
 Alpha  occ. eigenvalues --  -19.14955 -19.14046 -14.30772 -10.27340 -10.22216
 Alpha  occ. eigenvalues --  -10.21727 -10.19378 -10.19192 -10.18935 -10.17360
 Alpha  occ. eigenvalues --  -10.17296 -10.16924 -10.16847  -1.05339  -0.99492
 Alpha  occ. eigenvalues --   -0.91872  -0.78789  -0.75639  -0.72022  -0.71470
 Alpha  occ. eigenvalues --   -0.68146  -0.67031  -0.61332  -0.57387  -0.56573
 Alpha  occ. eigenvalues --   -0.54462  -0.49965  -0.49807  -0.48563  -0.47538
 Alpha  occ. eigenvalues --   -0.46493  -0.44299  -0.43530  -0.42565  -0.41792
 Alpha  occ. eigenvalues --   -0.41273  -0.40418  -0.39976  -0.37956  -0.36484
 Alpha  occ. eigenvalues --   -0.35502  -0.35168  -0.33486  -0.33376  -0.33112
 Alpha  occ. eigenvalues --   -0.32872  -0.31445  -0.30601  -0.28385  -0.26627
 Alpha  occ. eigenvalues --   -0.25259  -0.20068
 Alpha virt. eigenvalues --    0.07244   0.09436   0.10289   0.11641   0.11871
 Alpha virt. eigenvalues --    0.13223   0.13446   0.14448   0.14740   0.15402
 Alpha virt. eigenvalues --    0.15656   0.16579   0.16937   0.17652   0.18297
 Alpha virt. eigenvalues --    0.18666   0.18685   0.18951   0.19569   0.20091
 Alpha virt. eigenvalues --    0.21172   0.21832   0.22564   0.23021   0.23763
 Alpha virt. eigenvalues --    0.24483   0.25500   0.27254   0.28023   0.28967
 Alpha virt. eigenvalues --    0.29896   0.32514   0.32566   0.34420   0.50184
 Alpha virt. eigenvalues --    0.51333   0.52027   0.53605   0.53765   0.54239
 Alpha virt. eigenvalues --    0.54494   0.55235   0.55811   0.57297   0.57777
 Alpha virt. eigenvalues --    0.59457   0.61400   0.61993   0.63919   0.64421
 Alpha virt. eigenvalues --    0.66847   0.67504   0.68206   0.69054   0.69627
 Alpha virt. eigenvalues --    0.71731   0.76707   0.77896   0.78811   0.79833
 Alpha virt. eigenvalues --    0.81108   0.82659   0.83047   0.83910   0.84333
 Alpha virt. eigenvalues --    0.84679   0.85235   0.86670   0.87091   0.87496
 Alpha virt. eigenvalues --    0.87982   0.89579   0.89941   0.90411   0.91266
 Alpha virt. eigenvalues --    0.92897   0.93783   0.94439   0.95036   0.95726
 Alpha virt. eigenvalues --    0.97100   0.97387   0.99657   1.00061   1.01132
 Alpha virt. eigenvalues --    1.02063   1.02534   1.06067   1.11116   1.11838
 Alpha virt. eigenvalues --    1.14320   1.16422   1.18283   1.20433   1.26611
 Alpha virt. eigenvalues --    1.26912   1.29025   1.29905   1.33815   1.34833
 Alpha virt. eigenvalues --    1.38083   1.42042   1.44201   1.48393   1.49729
 Alpha virt. eigenvalues --    1.54798   1.57526   1.59012   1.61494   1.63535
 Alpha virt. eigenvalues --    1.68691   1.70770   1.72590   1.74512   1.76402
 Alpha virt. eigenvalues --    1.79587   1.80422   1.82494   1.84686   1.86033
 Alpha virt. eigenvalues --    1.87849   1.89606   1.92302   1.93745   1.96328
 Alpha virt. eigenvalues --    1.99041   1.99512   2.00926   2.01325   2.04635
 Alpha virt. eigenvalues --    2.07213   2.07469   2.08107   2.09366   2.10587
 Alpha virt. eigenvalues --    2.12105   2.13444   2.15129   2.16995   2.18359
 Alpha virt. eigenvalues --    2.19612   2.21512   2.24083   2.25541   2.26455
 Alpha virt. eigenvalues --    2.29525   2.29945   2.31538   2.33765   2.38863
 Alpha virt. eigenvalues --    2.39421   2.41339   2.42084   2.43637   2.44593
 Alpha virt. eigenvalues --    2.53180   2.54266   2.57130   2.58661   2.61598
 Alpha virt. eigenvalues --    2.66281   2.68789   2.70363   2.71587   2.72557
 Alpha virt. eigenvalues --    2.75098   2.79005   2.84756   2.90083   2.92900
 Alpha virt. eigenvalues --    2.93788   2.99973   3.93381   4.01464   4.10344
 Alpha virt. eigenvalues --    4.18878   4.23387   4.26340   4.27694   4.28499
 Alpha virt. eigenvalues --    4.39422   4.46628   4.57666   4.58408   4.64734
          Condensed to atoms (all electrons):
               1          2          3          4          5          6
     1  C    4.899457   0.242109  -0.033607  -0.005456  -0.002097  -0.000013
     2  O    0.242109   8.244581   0.245201  -0.048068  -0.001433  -0.000049
     3  C   -0.033607   0.245201   4.607986   0.358636  -0.024301  -0.003207
     4  C   -0.005456  -0.048068   0.358636   5.142494   0.348737  -0.038047
     5  C   -0.002097  -0.001433  -0.024301   0.348737   5.069787   0.375218
     6  C   -0.000013  -0.000049  -0.003207  -0.038047   0.375218   4.960765
     7  N    0.000002   0.000000  -0.000760  -0.004168  -0.056544   0.306931
     8  C    0.000000   0.000000  -0.000024   0.000152   0.004974  -0.053142
     9  C    0.000000   0.000000  -0.000001   0.000011  -0.000398  -0.005510
    10  C   -0.000000  -0.000000  -0.000001   0.000039  -0.000556  -0.005322
    11  C   -0.000000   0.000000   0.000036  -0.000245  -0.004028  -0.052096
    12  O   -0.008485  -0.055475   0.227870  -0.047274  -0.000793  -0.006924
    13  C    0.000212  -0.002776  -0.031757   0.006535  -0.000145   0.000287
    14  H    0.379576  -0.034271   0.004160  -0.000223   0.000227  -0.000006
    15  H    0.369444  -0.044415  -0.000899   0.004153  -0.003214   0.000111
    16  H    0.362790  -0.034739  -0.011111  -0.001477  -0.000060  -0.000070
    17  H    0.006851  -0.052188   0.380230  -0.060631   0.005416  -0.000131
    18  H   -0.000049   0.003450  -0.024456   0.351522  -0.037904  -0.009556
    19  H   -0.000499   0.000700  -0.032594   0.359988  -0.035904   0.004847
    20  H   -0.000022  -0.000086   0.004197  -0.036588   0.368171  -0.038797
    21  H    0.002026   0.000738  -0.005623  -0.037922   0.358609  -0.032094
    22  H    0.000005   0.000001  -0.000135   0.005978  -0.053120   0.344945
    23  H   -0.000136  -0.000033   0.001411  -0.007314  -0.030626   0.371935
    24  H   -0.000000   0.000000   0.000007  -0.000009  -0.000151   0.006696
    25  H   -0.000000   0.000000   0.000012   0.000003   0.000109  -0.007120
    26  H   -0.000000  -0.000000   0.000000  -0.000001  -0.000043   0.002196
    27  H    0.000000   0.000000   0.000000   0.000000   0.000004   0.000168
    28  H    0.000000  -0.000000   0.000000  -0.000001   0.000106   0.000962
    29  H    0.000000   0.000000   0.000000  -0.000000   0.000000   0.000155
    30  H    0.000000  -0.000000   0.000005  -0.000021   0.000891  -0.007288
    31  H   -0.000000   0.000000   0.000002   0.000045   0.000141   0.006744
    32  H    0.000329   0.012950  -0.008258   0.000207  -0.000050   0.000012
    33  H    0.000079  -0.001074  -0.009022  -0.000170   0.000043  -0.000047
    34  H   -0.000049   0.000028   0.005326  -0.000189   0.000007   0.000039
               7          8          9         10         11         12
     1  C    0.000002   0.000000   0.000000  -0.000000  -0.000000  -0.008485
     2  O    0.000000   0.000000   0.000000  -0.000000   0.000000  -0.055475
     3  C   -0.000760  -0.000024  -0.000001  -0.000001   0.000036   0.227870
     4  C   -0.004168   0.000152   0.000011   0.000039  -0.000245  -0.047274
     5  C   -0.056544   0.004974  -0.000398  -0.000556  -0.004028  -0.000793
     6  C    0.306931  -0.053142  -0.005510  -0.005322  -0.052096  -0.006924
     7  N    6.822570   0.344912  -0.079266  -0.078697   0.333766   0.000406
     8  C    0.344912   4.949313   0.348519  -0.077858  -0.076328   0.000023
     9  C   -0.079266   0.348519   5.116754   0.391929  -0.076839   0.000011
    10  C   -0.078697  -0.077858   0.391929   5.113742   0.345235  -0.000001
    11  C    0.333766  -0.076328  -0.076839   0.345235   4.971716   0.000014
    12  O    0.000406   0.000023   0.000011  -0.000001   0.000014   8.230891
    13  C    0.000005  -0.000005  -0.000000   0.000000   0.000000   0.243099
    14  H    0.000000  -0.000000   0.000000   0.000000   0.000000   0.000033
    15  H   -0.000001  -0.000000   0.000000   0.000000  -0.000000  -0.000306
    16  H    0.000002  -0.000000  -0.000000   0.000000   0.000000   0.016623
    17  H   -0.000044   0.000000   0.000000  -0.000000  -0.000001  -0.044465
    18  H    0.015699  -0.000195   0.000037   0.000071   0.000397   0.001838
    19  H    0.000258   0.000003   0.000000   0.000001  -0.000022   0.002779
    20  H   -0.003857   0.000008  -0.000029  -0.000088   0.001441  -0.000038
    21  H    0.003863  -0.000162   0.000022   0.000018   0.000054  -0.000298
    22  H   -0.054940  -0.003375   0.006791   0.008729  -0.009446   0.000322
    23  H   -0.032525  -0.006232  -0.001152  -0.000295   0.005672   0.012320
    24  H   -0.048579   0.382522  -0.054971  -0.003917   0.002416  -0.000010
    25  H   -0.027064   0.373470  -0.034625   0.005425   0.006390   0.000377
    26  H    0.000582  -0.036164   0.377697  -0.036953   0.003017  -0.000000
    27  H    0.005031  -0.026404   0.360477  -0.033697   0.005197   0.000000
    28  H    0.002208   0.003812  -0.035375   0.375952  -0.035082  -0.000000
    29  H    0.004251   0.004574  -0.034491   0.364168  -0.027724   0.000000
    30  H   -0.028415   0.006437   0.005056  -0.033065   0.371491  -0.000001
    31  H   -0.047627   0.001909  -0.002596  -0.052965   0.383782   0.000000
    32  H   -0.000000   0.000000   0.000000  -0.000000   0.000000  -0.037677
    33  H    0.000006   0.000000   0.000000   0.000000  -0.000000  -0.037925
    34  H   -0.000002   0.000005  -0.000000   0.000000   0.000000  -0.031637
              13         14         15         16         17         18
     1  C    0.000212   0.379576   0.369444   0.362790   0.006851  -0.000049
     2  O   -0.002776  -0.034271  -0.044415  -0.034739  -0.052188   0.003450
     3  C   -0.031757   0.004160  -0.000899  -0.011111   0.380230  -0.024456
     4  C    0.006535  -0.000223   0.004153  -0.001477  -0.060631   0.351522
     5  C   -0.000145   0.000227  -0.003214  -0.000060   0.005416  -0.037904
     6  C    0.000287  -0.000006   0.000111  -0.000070  -0.000131  -0.009556
     7  N    0.000005   0.000000  -0.000001   0.000002  -0.000044   0.015699
     8  C   -0.000005  -0.000000  -0.000000  -0.000000   0.000000  -0.000195
     9  C   -0.000000   0.000000   0.000000  -0.000000   0.000000   0.000037
    10  C    0.000000   0.000000   0.000000   0.000000  -0.000000   0.000071
    11  C    0.000000   0.000000  -0.000000   0.000000  -0.000001   0.000397
    12  O    0.243099   0.000033  -0.000306   0.016623  -0.044465   0.001838
    13  C    4.886256  -0.000051   0.000048  -0.000154  -0.010286  -0.000213
    14  H   -0.000051   0.576162  -0.041423  -0.032774  -0.000175   0.000008
    15  H    0.000048  -0.041423   0.618443  -0.044966  -0.000244  -0.000179
    16  H   -0.000154  -0.032774  -0.044966   0.593548   0.000447   0.000003
    17  H   -0.010286  -0.000175  -0.000244   0.000447   0.649132  -0.004779
    18  H   -0.000213   0.000008  -0.000179   0.000003  -0.004779   0.575734
    19  H   -0.000175  -0.000061   0.000323   0.000283  -0.000397  -0.032973
    20  H    0.000005  -0.000007   0.000365   0.000033  -0.000170  -0.004165
    21  H   -0.000020   0.000114   0.002696   0.000617  -0.000086   0.005911
    22  H   -0.000006   0.000000  -0.000006  -0.000011   0.000006   0.000492
    23  H   -0.000198  -0.000009   0.000051   0.000987   0.000177  -0.000344
    24  H    0.000000   0.000000   0.000000  -0.000000   0.000000  -0.000043
    25  H    0.000026  -0.000000   0.000000  -0.000002  -0.000001   0.000004
    26  H    0.000000  -0.000000   0.000000   0.000000   0.000000  -0.000001
    27  H   -0.000000  -0.000000  -0.000000  -0.000000   0.000000  -0.000000
    28  H   -0.000000  -0.000000   0.000000   0.000000  -0.000000  -0.000002
    29  H   -0.000000   0.000000  -0.000000   0.000000   0.000000  -0.000001
    30  H    0.000000  -0.000000   0.000000   0.000000  -0.000000   0.000100
    31  H   -0.000000   0.000000   0.000000  -0.000000  -0.000000  -0.000207
    32  H    0.367369  -0.000089   0.000106  -0.001788  -0.002050  -0.000011
    33  H    0.364572  -0.000000  -0.000000   0.000147   0.014220  -0.000039
    34  H    0.381620  -0.000007   0.000002  -0.000008  -0.000077  -0.000003
              19         20         21         22         23         24
     1  C   -0.000499  -0.000022   0.002026   0.000005  -0.000136  -0.000000
     2  O    0.000700  -0.000086   0.000738   0.000001  -0.000033   0.000000
     3  C   -0.032594   0.004197  -0.005623  -0.000135   0.001411   0.000007
     4  C    0.359988  -0.036588  -0.037922   0.005978  -0.007314  -0.000009
     5  C   -0.035904   0.368171   0.358609  -0.053120  -0.030626  -0.000151
     6  C    0.004847  -0.038797  -0.032094   0.344945   0.371935   0.006696
     7  N    0.000258  -0.003857   0.003863  -0.054940  -0.032525  -0.048579
     8  C    0.000003   0.000008  -0.000162  -0.003375  -0.006232   0.382522
     9  C    0.000000  -0.000029   0.000022   0.006791  -0.001152  -0.054971
    10  C    0.000001  -0.000088   0.000018   0.008729  -0.000295  -0.003917
    11  C   -0.000022   0.001441   0.000054  -0.009446   0.005672   0.002416
    12  O    0.002779  -0.000038  -0.000298   0.000322   0.012320  -0.000010
    13  C   -0.000175   0.000005  -0.000020  -0.000006  -0.000198   0.000000
    14  H   -0.000061  -0.000007   0.000114   0.000000  -0.000009   0.000000
    15  H    0.000323   0.000365   0.002696  -0.000006   0.000051   0.000000
    16  H    0.000283   0.000033   0.000617  -0.000011   0.000987  -0.000000
    17  H   -0.000397  -0.000170  -0.000086   0.000006   0.000177   0.000000
    18  H   -0.032973  -0.004165   0.005911   0.000492  -0.000344  -0.000043
    19  H    0.598219  -0.004761  -0.002572  -0.000094  -0.000061  -0.000001
    20  H   -0.004761   0.618695  -0.036753  -0.006707   0.005526   0.000008
    21  H   -0.002572  -0.036753   0.611849   0.001802  -0.003887   0.000003
    22  H   -0.000094  -0.006707   0.001802   0.702387  -0.045721  -0.000548
    23  H   -0.000061   0.005526  -0.003887  -0.045721   0.562988   0.000376
    24  H   -0.000001   0.000008   0.000003  -0.000548   0.000376   0.615257
    25  H    0.000000   0.000002  -0.000012   0.000301   0.005185  -0.037270
    26  H   -0.000000   0.000008  -0.000001  -0.000761   0.000407   0.005564
    27  H   -0.000000  -0.000000  -0.000000  -0.000165  -0.000006  -0.005425
    28  H   -0.000000  -0.000007  -0.000010  -0.000008  -0.000039  -0.000082
    29  H   -0.000000   0.000002  -0.000000  -0.000283   0.000007   0.000733
    30  H   -0.000000   0.005315  -0.000118   0.000719   0.000153  -0.000172
    31  H   -0.000005  -0.000189  -0.000001  -0.000363  -0.000200   0.003526
    32  H    0.000014   0.000000  -0.000000   0.000000  -0.000005  -0.000000
    33  H   -0.000010   0.000000  -0.000001   0.000000   0.000092  -0.000000
    34  H    0.000003  -0.000000   0.000001  -0.000001  -0.000115  -0.000001
              25         26         27         28         29         30
     1  C   -0.000000  -0.000000   0.000000   0.000000   0.000000   0.000000
     2  O    0.000000  -0.000000   0.000000  -0.000000   0.000000  -0.000000
     3  C    0.000012   0.000000   0.000000   0.000000   0.000000   0.000005
     4  C    0.000003  -0.000001   0.000000  -0.000001  -0.000000  -0.000021
     5  C    0.000109  -0.000043   0.000004   0.000106   0.000000   0.000891
     6  C   -0.007120   0.002196   0.000168   0.000962   0.000155  -0.007288
     7  N   -0.027064   0.000582   0.005031   0.002208   0.004251  -0.028415
     8  C    0.373470  -0.036164  -0.026404   0.003812   0.004574   0.006437
     9  C   -0.034625   0.377697   0.360477  -0.035375  -0.034491   0.005056
    10  C    0.005425  -0.036953  -0.033697   0.375952   0.364168  -0.033065
    11  C    0.006390   0.003017   0.005197  -0.035082  -0.027724   0.371491
    12  O    0.000377  -0.000000   0.000000  -0.000000   0.000000  -0.000001
    13  C    0.000026   0.000000  -0.000000  -0.000000  -0.000000   0.000000
    14  H   -0.000000  -0.000000  -0.000000  -0.000000   0.000000  -0.000000
    15  H    0.000000   0.000000  -0.000000   0.000000  -0.000000   0.000000
    16  H   -0.000002   0.000000  -0.000000   0.000000   0.000000   0.000000
    17  H   -0.000001   0.000000   0.000000  -0.000000   0.000000  -0.000000
    18  H    0.000004  -0.000001  -0.000000  -0.000002  -0.000001   0.000100
    19  H    0.000000  -0.000000  -0.000000  -0.000000  -0.000000  -0.000000
    20  H    0.000002   0.000008  -0.000000  -0.000007   0.000002   0.005315
    21  H   -0.000012  -0.000001  -0.000000  -0.000010  -0.000000  -0.000118
    22  H    0.000301  -0.000761  -0.000165  -0.000008  -0.000283   0.000719
    23  H    0.005185   0.000407  -0.000006  -0.000039   0.000007   0.000153
    24  H   -0.037270   0.005564  -0.005425  -0.000082   0.000733  -0.000172
    25  H    0.577085  -0.007587   0.002793  -0.000187  -0.000146  -0.000226
    26  H   -0.007587   0.596709  -0.035079  -0.012405   0.004739  -0.000152
    27  H    0.002793  -0.035079   0.597052   0.004260  -0.008081  -0.000143
    28  H   -0.000187  -0.012405   0.004260   0.595516  -0.034800  -0.008135
    29  H   -0.000146   0.004739  -0.008081  -0.034800   0.595234   0.003263
    30  H   -0.000226  -0.000152  -0.000143  -0.008135   0.003263   0.581875
    31  H   -0.000163  -0.000125   0.000359   0.005431  -0.006796  -0.038962
    32  H    0.000002  -0.000000   0.000000  -0.000000   0.000000  -0.000000
    33  H   -0.000006  -0.000000  -0.000000   0.000000  -0.000000  -0.000000
    34  H    0.000067  -0.000000   0.000000  -0.000000  -0.000000  -0.000000
              31         32         33         34
     1  C   -0.000000   0.000329   0.000079  -0.000049
     2  O    0.000000   0.012950  -0.001074   0.000028
     3  C    0.000002  -0.008258  -0.009022   0.005326
     4  C    0.000045   0.000207  -0.000170  -0.000189
     5  C    0.000141  -0.000050   0.000043   0.000007
     6  C    0.006744   0.000012  -0.000047   0.000039
     7  N   -0.047627  -0.000000   0.000006  -0.000002
     8  C    0.001909   0.000000   0.000000   0.000005
     9  C   -0.002596   0.000000   0.000000  -0.000000
    10  C   -0.052965  -0.000000   0.000000   0.000000
    11  C    0.383782   0.000000  -0.000000   0.000000
    12  O    0.000000  -0.037677  -0.037925  -0.031637
    13  C   -0.000000   0.367369   0.364572   0.381620
    14  H    0.000000  -0.000089  -0.000000  -0.000007
    15  H    0.000000   0.000106  -0.000000   0.000002
    16  H   -0.000000  -0.001788   0.000147  -0.000008
    17  H   -0.000000  -0.002050   0.014220  -0.000077
    18  H   -0.000207  -0.000011  -0.000039  -0.000003
    19  H   -0.000005   0.000014  -0.000010   0.000003
    20  H   -0.000189   0.000000   0.000000  -0.000000
    21  H   -0.000001  -0.000000  -0.000001   0.000001
    22  H   -0.000363   0.000000   0.000000  -0.000001
    23  H   -0.000200  -0.000005   0.000092  -0.000115
    24  H    0.003526  -0.000000  -0.000000  -0.000001
    25  H   -0.000163   0.000002  -0.000006   0.000067
    26  H   -0.000125  -0.000000  -0.000000  -0.000000
    27  H    0.000359   0.000000  -0.000000   0.000000
    28  H    0.005431  -0.000000   0.000000  -0.000000
    29  H   -0.006796   0.000000  -0.000000  -0.000000
    30  H   -0.038962  -0.000000  -0.000000  -0.000000
    31  H    0.609800   0.000000   0.000000  -0.000000
    32  H    0.000000   0.596185  -0.044207  -0.036011
    33  H    0.000000  -0.044207   0.610262  -0.034263
    34  H   -0.000000  -0.036011  -0.034263   0.562162
 Mulliken charges:
               1
     1  C   -0.212467
     2  O   -0.475154
     3  C    0.350677
     4  C   -0.290695
     5  C   -0.281072
     6  C   -0.122594
     7  N   -0.378006
     8  C   -0.140743
     9  C   -0.282051
    10  C   -0.281895
    11  C   -0.148814
    12  O   -0.465298
    13  C   -0.204246
    14  H    0.148814
    15  H    0.139910
    16  H    0.151678
    17  H    0.119245
    18  H    0.159852
    19  H    0.142712
    20  H    0.128487
    21  H    0.131237
    22  H    0.103213
    23  H    0.161609
    24  H    0.134073
    25  H    0.143158
    26  H    0.138352
    27  H    0.133661
    28  H    0.137886
    29  H    0.135195
    30  H    0.141391
    31  H    0.138461
    32  H    0.152972
    33  H    0.137346
    34  H    0.153106
 Sum of Mulliken charges =  -0.00000
 Mulliken charges with hydrogens summed into heavy atoms:
               1
     1  C    0.227935
     2  O   -0.475154
     3  C    0.469922
     4  C    0.011869
     5  C   -0.021349
     6  C    0.142228
     7  N   -0.378006
     8  C    0.136487
     9  C   -0.010037
    10  C   -0.008814
    11  C    0.131039
    12  O   -0.465298
    13  C    0.239179
 Electronic spatial extent (au):  <R**2>=           3347.6365
 Charge=             -0.0000 electrons
 Dipole moment (field-independent basis, Debye):
    X=             -0.6578    Y=              0.2287    Z=              0.8039  Tot=              1.0637
 Quadrupole moment (field-independent basis, Debye-Ang):
   XX=            -82.9587   YY=            -77.2049   ZZ=            -80.0343
   XY=              2.3185   XZ=              2.7431   YZ=             -0.5232
 Traceless Quadrupole moment (field-independent basis, Debye-Ang):
   XX=             -2.8927   YY=              2.8610   ZZ=              0.0317
   XY=              2.3185   XZ=              2.7431   YZ=             -0.5232
 Octapole moment (field-independent basis, Debye-Ang**2):
  XXX=             -2.7648  YYY=             12.6101  ZZZ=             -1.6113  XYY=             13.7737
  XXY=             11.4838  XXZ=              6.6535  XZZ=             13.2093  YZZ=              0.8846
  YYZ=             -0.2745  XYZ=             -4.3755
 Hexadecapole moment (field-independent basis, Debye-Ang**3):
 XXXX=          -3375.8589 YYYY=           -747.1148 ZZZZ=           -366.4868 XXXY=             17.4695
 XXXZ=             84.2408 YYYX=             21.0324 YYYZ=              3.8703 ZZZX=              2.1415
 ZZZY=             -2.6172 XXYY=           -651.5157 XXZZ=           -588.9104 YYZZ=           -189.8404
 XXYZ=            -18.5226 YYXZ=              3.4388 ZZXY=              0.3946
 N-N= 8.967198208862D+02 E-N=-3.186628039818D+03  KE= 5.934059245857D+02
 Calling FoFJK, ICntrl=      2127 FMM=F ISym2X=0 I1Cent= 0 IOpClX= 0 NMat=1 NMatS=1 NMatT=0.
 ***** Axes restored to original set *****
 -------------------------------------------------------------------
 Center     Atomic                   Forces (Hartrees/Bohr)
 Number     Number              X              Y              Z
 -------------------------------------------------------------------
      1        6          -0.004096197    0.003786794   -0.000395095
      2        8           0.010915176   -0.002848290    0.006291887
      3        6          -0.004280089   -0.000372925    0.003154949
      4        6           0.007079824   -0.007514991   -0.005241903
      5        6          -0.000367852   -0.002628215   -0.001584554
      6        6          -0.001853200    0.003443222   -0.000072525
      7        7          -0.002070612    0.017281114   -0.001466379
      8        6           0.000613327    0.001749729    0.009517531
      9        6           0.013457564   -0.006222220   -0.011362342
     10        6          -0.004832375   -0.016313550   -0.009757657
     11        6           0.000527175    0.001067119    0.009984855
     12        8          -0.009947351   -0.002918797   -0.000228496
     13        6           0.000899502   -0.000122490   -0.004743121
     14        1           0.000748208    0.001505697    0.002689333
     15        1          -0.000936724   -0.003404723   -0.004626593
     16        1           0.000476046   -0.002693607    0.000292054
     17        1          -0.001109751    0.007514548   -0.000522649
     18        1           0.002211178    0.001414854   -0.001252899
     19        1           0.002667692    0.004755809    0.001173177
     20        1          -0.000835942   -0.000426819    0.001277149
     21        1           0.000842338    0.000158733   -0.001879325
     22        1          -0.003498592   -0.002602985   -0.005158911
     23        1           0.001394161   -0.002870624    0.006681641
     24        1          -0.000675065   -0.000047137    0.002026286
     25        1          -0.006415601    0.002794835    0.001797889
     26        1           0.002512020   -0.000190318    0.000555767
     27        1           0.001695323    0.000486940   -0.002323520
     28        1          -0.000628017   -0.002769265    0.001150603
     29        1          -0.002205939   -0.001289111   -0.001794654
     30        1           0.001044391    0.006839238    0.000150056
     31        1          -0.000218518    0.001602116    0.001367270
     32        1          -0.001074813    0.002062388    0.002209946
     33        1          -0.000852871    0.001791967    0.003449756
     34        1          -0.001184419   -0.003019035   -0.001359527
 -------------------------------------------------------------------
 Cartesian Forces:  Max     0.017281114 RMS     0.004631890

 GradGradGradGradGradGradGradGradGradGradGradGradGradGradGradGradGradGrad
 Berny optimization.
 FormGI is forming the generalized inverse of G from B-inverse, IUseBI=4.
 Internal  Forces:  Max     0.018477457 RMS     0.003655822
 Search for a local minimum.
 Step number   1 out of a maximum of  193
 All quantities printed in internal units (Hartrees-Bohrs-Radians)
 Mixed Optimization -- RFO/linear search
 Second derivative matrix not updated -- first step.
 ITU=  0
     Eigenvalues ---    0.00230   0.00272   0.00297   0.00511   0.00737
     Eigenvalues ---    0.00829   0.01300   0.01409   0.01421   0.01475
     Eigenvalues ---    0.02469   0.02484   0.02872   0.03063   0.03995
     Eigenvalues ---    0.04341   0.04451   0.04629   0.04669   0.04739
     Eigenvalues ---    0.04758   0.05176   0.05441   0.05624   0.05891
     Eigenvalues ---    0.05984   0.06341   0.06428   0.07132   0.07188
     Eigenvalues ---    0.08459   0.08519   0.09000   0.09183   0.09370
     Eigenvalues ---    0.09431   0.09574   0.09725   0.09969   0.10107
     Eigenvalues ---    0.10491   0.10573   0.11592   0.12685   0.12926
     Eigenvalues ---    0.12928   0.13943   0.16000   0.16000   0.16000
     Eigenvalues ---    0.16000   0.16000   0.16000   0.17922   0.20005
     Eigenvalues ---    0.20813   0.21477   0.21895   0.21928   0.22040
     Eigenvalues ---    0.25000   0.25000   0.28222   0.28447   0.28475
     Eigenvalues ---    0.28755   0.28927   0.30183   0.33868   0.33894
     Eigenvalues ---    0.33920   0.33939   0.33948   0.33954   0.33965
     Eigenvalues ---    0.33992   0.34103   0.34123   0.34131   0.34162
     Eigenvalues ---    0.34262   0.34276   0.34304   0.34314   0.34348
     Eigenvalues ---    0.34357   0.34357   0.34406   0.34427   0.34503
     Eigenvalues ---    0.34540   0.35481   0.41047   0.42257   0.42393
     Eigenvalues ---    0.43009
 RFO step:  Lambda=-1.21801472D-02 EMin= 2.30000000D-03
 Linear search not attempted -- first point.
 Iteration  1 RMS(Cart)=  0.10395473 RMS(Int)=  0.00277643
 Iteration  2 RMS(Cart)=  0.00566805 RMS(Int)=  0.00027501
 Iteration  3 RMS(Cart)=  0.00001717 RMS(Int)=  0.00027493
 Iteration  4 RMS(Cart)=  0.00000001 RMS(Int)=  0.00027493
 Variable       Old X    -DE/DX   Delta X   Delta X   Delta X     New X
                                 (Linear)    (Quad)   (Total)
    R1        2.67659   0.00235   0.00000   0.00531   0.00531   2.68191
    R2        2.06732   0.00058   0.00000   0.00164   0.00164   2.06897
    R3        2.06429   0.00379   0.00000   0.01059   0.01059   2.07488
    R4        2.06650   0.00120   0.00000   0.00336   0.00336   2.06987
    R5        2.70156  -0.00770   0.00000  -0.01822  -0.01822   2.68334
    R6        2.91172  -0.00399   0.00000  -0.01346  -0.01346   2.89826
    R7        2.68598  -0.01094   0.00000  -0.02517  -0.02517   2.66081
    R8        2.07509   0.00067   0.00000   0.00192   0.00192   2.07701
    R9        2.90518   0.00066   0.00000   0.00219   0.00219   2.90736
   R10        2.07388  -0.00123   0.00000  -0.00349  -0.00349   2.07039
   R11        2.07433  -0.00124   0.00000  -0.00354  -0.00354   2.07080
   R12        2.90156  -0.00256   0.00000  -0.00848  -0.00848   2.89308
   R13        2.07418   0.00094   0.00000   0.00267   0.00267   2.07685
   R14        2.06490   0.00132   0.00000   0.00368   0.00368   2.06858
   R15        2.78200  -0.00210   0.00000  -0.00573  -0.00573   2.77628
   R16        2.07466   0.00608   0.00000   0.01731   0.01731   2.09196
   R17        2.06891  -0.00246   0.00000  -0.00693  -0.00693   2.06198
   R18        2.78011  -0.00064   0.00000  -0.00313  -0.00336   2.77674
   R19        2.77903   0.00004   0.00000  -0.00142  -0.00160   2.77743
   R20        2.87210   0.01733   0.00000   0.05465   0.05473   2.92682
   R21        2.07343   0.00152   0.00000   0.00433   0.00433   2.07776
   R22        2.07057  -0.00199   0.00000  -0.00563  -0.00563   2.06494
   R23        2.87665   0.01541   0.00000   0.05136   0.05163   2.92828
   R24        2.07156  -0.00041   0.00000  -0.00115  -0.00115   2.07041
   R25        2.06820   0.00060   0.00000   0.00168   0.00168   2.06988
   R26        2.87965   0.01848   0.00000   0.06045   0.06051   2.94016
   R27        2.07110  -0.00052   0.00000  -0.00147  -0.00147   2.06963
   R28        2.06866   0.00031   0.00000   0.00087   0.00087   2.06953
   R29        2.06747  -0.00080   0.00000  -0.00225  -0.00225   2.06522
   R30        2.07408   0.00063   0.00000   0.00178   0.00178   2.07586
   R31        2.68426  -0.00101   0.00000  -0.00231  -0.00231   2.68195
   R32        2.06732   0.00154   0.00000   0.00432   0.00432   2.07163
   R33        2.06803   0.00333   0.00000   0.00938   0.00938   2.07741
   R34        2.06615  -0.00008   0.00000  -0.00023  -0.00023   2.06592
    A1        1.88297  -0.00430   0.00000  -0.02374  -0.02382   1.85915
    A2        1.91946   0.00624   0.00000   0.03746   0.03754   1.95700
    A3        1.96381  -0.00258   0.00000  -0.01755  -0.01759   1.94621
    A4        1.87168   0.00169   0.00000   0.01539   0.01545   1.88714
    A5        1.88664   0.00223   0.00000   0.01029   0.01007   1.89670
    A6        1.93587  -0.00321   0.00000  -0.02096  -0.02086   1.91502
    A7        2.01093   0.00440   0.00000   0.01677   0.01677   2.02770
    A8        1.98190   0.00949   0.00000   0.03308   0.03231   2.01421
    A9        1.96023  -0.00012   0.00000  -0.01575  -0.01572   1.94450
   A10        1.82505  -0.00681   0.00000  -0.04367  -0.04454   1.78051
   A11        1.96724  -0.01159   0.00000  -0.05339  -0.05298   1.91426
   A12        1.83335   0.00591   0.00000   0.05733   0.05766   1.89101
   A13        1.88254   0.00379   0.00000   0.02966   0.03031   1.91285
   A14        2.08067   0.00261   0.00000   0.00853   0.00861   2.08928
   A15        1.87797  -0.00092   0.00000  -0.01183  -0.01190   1.86607
   A16        1.88617  -0.00522   0.00000  -0.03848  -0.03857   1.84759
   A17        1.87321  -0.00132   0.00000  -0.00503  -0.00503   1.86818
   A18        1.88036   0.00335   0.00000   0.03161   0.03169   1.91205
   A19        1.85356   0.00151   0.00000   0.01712   0.01671   1.87027
   A20        2.03434  -0.00704   0.00000  -0.03377  -0.03381   2.00053
   A21        1.87308   0.00125   0.00000   0.00013   0.00002   1.87310
   A22        1.92996   0.00322   0.00000   0.01758   0.01752   1.94748
   A23        1.89685   0.00251   0.00000   0.00840   0.00822   1.90508
   A24        1.88756   0.00133   0.00000   0.00274   0.00284   1.89040
   A25        1.83113  -0.00069   0.00000   0.00912   0.00902   1.84015
   A26        1.97342  -0.00315   0.00000  -0.02037  -0.02075   1.95266
   A27        1.89346  -0.00093   0.00000   0.00139   0.00142   1.89488
   A28        1.88959   0.00314   0.00000   0.00898   0.00790   1.89749
   A29        1.94248   0.00351   0.00000   0.02945   0.02972   1.97220
   A30        1.92334  -0.00379   0.00000  -0.04685  -0.04708   1.87627
   A31        1.83567   0.00162   0.00000   0.03120   0.03144   1.86711
   A32        1.93991   0.00453   0.00000   0.03156   0.03163   1.97155
   A33        1.96540   0.00045   0.00000   0.00122   0.00151   1.96691
   A34        1.81073  -0.00385   0.00000  -0.02380  -0.02412   1.78661
   A35        1.84385   0.00732   0.00000   0.02688   0.02672   1.87057
   A36        1.89411  -0.00210   0.00000  -0.00741  -0.00778   1.88633
   A37        1.98543  -0.00725   0.00000  -0.05975  -0.05986   1.92557
   A38        1.91313  -0.00058   0.00000   0.01049   0.01036   1.92350
   A39        1.96572   0.00093   0.00000   0.02138   0.02180   1.98752
   A40        1.86062   0.00156   0.00000   0.00878   0.00788   1.86850
   A41        1.82857  -0.00513   0.00000  -0.02138  -0.02114   1.80743
   A42        1.93160   0.00056   0.00000  -0.00329  -0.00319   1.92841
   A43        1.95132   0.00210   0.00000   0.01015   0.01016   1.96148
   A44        1.91681   0.00229   0.00000   0.01497   0.01485   1.93166
   A45        1.95336   0.00251   0.00000   0.01727   0.01720   1.97056
   A46        1.88254  -0.00222   0.00000  -0.01692  -0.01699   1.86555
   A47        1.83737  -0.00630   0.00000  -0.02359  -0.02333   1.81404
   A48        1.91919   0.00255   0.00000   0.01645   0.01647   1.93566
   A49        1.94603   0.00299   0.00000   0.01744   0.01727   1.96330
   A50        1.93799   0.00198   0.00000   0.00592   0.00594   1.94393
   A51        1.94042   0.00162   0.00000   0.00540   0.00551   1.94594
   A52        1.88345  -0.00268   0.00000  -0.02046  -0.02055   1.86290
   A53        1.85507   0.00738   0.00000   0.02491   0.02464   1.87971
   A54        1.99489  -0.00745   0.00000  -0.06173  -0.06183   1.93307
   A55        1.88934  -0.00215   0.00000  -0.00580  -0.00625   1.88309
   A56        1.95905   0.00144   0.00000   0.01861   0.01895   1.97800
   A57        1.90676  -0.00070   0.00000   0.01875   0.01854   1.92529
   A58        1.85700   0.00137   0.00000   0.00691   0.00594   1.86294
   A59        1.95955   0.00147   0.00000   0.00561   0.00561   1.96516
   A60        1.93691   0.00206   0.00000   0.01191   0.01195   1.94886
   A61        1.93130   0.00120   0.00000   0.00588   0.00589   1.93719
   A62        1.88810  -0.00500   0.00000  -0.02794  -0.02789   1.86021
   A63        1.92327  -0.00265   0.00000  -0.01741  -0.01740   1.90587
   A64        1.89158   0.00251   0.00000   0.01681   0.01688   1.90847
   A65        1.89131   0.00188   0.00000   0.01087   0.01089   1.90221
    D1       -2.78707   0.00173   0.00000   0.02048   0.02025  -2.76682
    D2        1.46004  -0.00124   0.00000  -0.00476  -0.00479   1.45526
    D3       -0.70747   0.00013   0.00000   0.00713   0.00739  -0.70008
    D4       -1.19338   0.00519   0.00000   0.04016   0.03985  -1.15352
    D5        1.06444  -0.00278   0.00000  -0.01974  -0.02021   1.04424
    D6        3.10112  -0.00235   0.00000  -0.01805  -0.01728   3.08384
    D7        1.47162   0.00046   0.00000   0.01551   0.01504   1.48666
    D8       -2.67582  -0.00022   0.00000   0.00469   0.00417  -2.67165
    D9       -0.68104  -0.00152   0.00000  -0.00039  -0.00067  -0.68171
   D10       -0.78264   0.00260   0.00000   0.05635   0.05615  -0.72649
   D11        1.35310   0.00192   0.00000   0.04553   0.04528   1.39838
   D12       -2.93530   0.00063   0.00000   0.04045   0.04044  -2.89487
   D13       -2.82784   0.00044   0.00000   0.01344   0.01398  -2.81387
   D14       -0.69210  -0.00024   0.00000   0.00262   0.00311  -0.68899
   D15        1.30268  -0.00153   0.00000  -0.00245  -0.00173   1.30094
   D16        1.18954  -0.00366   0.00000  -0.03525  -0.03604   1.15350
   D17       -2.82825  -0.00073   0.00000  -0.05010  -0.04953  -2.87778
   D18       -0.81239   0.00237   0.00000   0.00835   0.00856  -0.80383
   D19        1.14969   0.00074   0.00000   0.02408   0.02395   1.17364
   D20       -3.00293   0.00022   0.00000   0.01218   0.01217  -2.99076
   D21       -1.01506   0.00173   0.00000   0.03196   0.03200  -0.98307
   D22       -0.98841   0.00123   0.00000   0.03827   0.03822  -0.95019
   D23        1.14216   0.00071   0.00000   0.02637   0.02644   1.16860
   D24        3.13002   0.00222   0.00000   0.04615   0.04626  -3.10690
   D25       -2.97799  -0.00148   0.00000   0.00564   0.00553  -2.97245
   D26       -0.84742  -0.00201   0.00000  -0.00626  -0.00624  -0.85367
   D27        1.14044  -0.00050   0.00000   0.01352   0.01358   1.15402
   D28        0.94101  -0.00235   0.00000  -0.02057  -0.02064   0.92037
   D29        3.10454  -0.00070   0.00000   0.00431   0.00421   3.10875
   D30       -1.19521   0.00232   0.00000   0.04609   0.04612  -1.14909
   D31       -1.17705  -0.00106   0.00000  -0.00374  -0.00375  -1.18080
   D32        0.98647   0.00060   0.00000   0.02114   0.02110   1.00757
   D33        2.96991   0.00361   0.00000   0.06292   0.06301   3.03292
   D34        3.12733  -0.00220   0.00000  -0.02004  -0.02003   3.10730
   D35       -0.99233  -0.00055   0.00000   0.00484   0.00482  -0.98751
   D36        0.99111   0.00247   0.00000   0.04662   0.04673   1.03784
   D37       -2.89736  -0.00034   0.00000   0.03470   0.03414  -2.86322
   D38        1.36264   0.00126   0.00000   0.04323   0.04284   1.40548
   D39        1.24943   0.00055   0.00000   0.02565   0.02545   1.27488
   D40       -0.77376   0.00215   0.00000   0.03419   0.03414  -0.73961
   D41       -0.78009  -0.00122   0.00000  -0.00163  -0.00111  -0.78120
   D42       -2.80328   0.00038   0.00000   0.00691   0.00759  -2.79569
   D43       -1.45375   0.00072   0.00000   0.01823   0.01839  -1.43536
   D44        2.77897  -0.00142   0.00000  -0.00440  -0.00399   2.77497
   D45        0.71118   0.00255   0.00000   0.02666   0.02626   0.73744
   D46        0.66273   0.00129   0.00000   0.02182   0.02175   0.68448
   D47       -1.38774  -0.00084   0.00000  -0.00081  -0.00063  -1.38837
   D48        2.82766   0.00313   0.00000   0.03025   0.02962   2.85728
   D49        1.48926   0.00192   0.00000  -0.00030  -0.00032   1.48894
   D50       -0.68156  -0.00049   0.00000  -0.00184  -0.00137  -0.68293
   D51       -2.74737   0.00388   0.00000   0.03165   0.03134  -2.71603
   D52       -0.61003  -0.00136   0.00000  -0.02407  -0.02404  -0.63407
   D53       -2.78085  -0.00377   0.00000  -0.02561  -0.02510  -2.80595
   D54        1.43652   0.00060   0.00000   0.00787   0.00762   1.44413
   D55       -0.45662  -0.00104   0.00000  -0.01250  -0.01263  -0.46925
   D56        1.60840  -0.00098   0.00000  -0.00867  -0.00866   1.59975
   D57       -2.57574  -0.00200   0.00000  -0.02557  -0.02562  -2.60136
   D58        1.58100   0.00017   0.00000  -0.00148  -0.00159   1.57941
   D59       -2.63716   0.00023   0.00000   0.00236   0.00238  -2.63478
   D60       -0.53812  -0.00079   0.00000  -0.01455  -0.01458  -0.55270
   D61       -2.63390   0.00233   0.00000   0.03005   0.03001  -2.60388
   D62       -0.56887   0.00239   0.00000   0.03389   0.03398  -0.53489
   D63        1.53017   0.00137   0.00000   0.01698   0.01702   1.54719
   D64        0.08040  -0.00087   0.00000  -0.00773  -0.00765   0.07275
   D65        2.16916  -0.00081   0.00000  -0.00567  -0.00565   2.16350
   D66       -2.02565  -0.00056   0.00000  -0.00923  -0.00912  -2.03477
   D67       -1.99462   0.00019   0.00000   0.00056   0.00063  -1.99399
   D68        0.09413   0.00025   0.00000   0.00262   0.00263   0.09676
   D69        2.18251   0.00050   0.00000  -0.00095  -0.00084   2.18167
   D70        2.19818  -0.00018   0.00000   0.00064   0.00061   2.19880
   D71       -1.99625  -0.00012   0.00000   0.00270   0.00262  -1.99363
[...]
   244    O   12  S      Val( 2S)     0.81235      -0.76982
   245    O   12  S      Ryd( 3S)     0.00233       0.96753
   246    O   12  S      Ryd( 4S)     0.00013       2.06430
   247    O   12  S      Ryd( 5S)     0.00000      49.65023
   248    O   12  px     Val( 2p)     0.86539      -0.20989
   249    O   12  px     Ryd( 3p)     0.00124       0.99414
   250    O   12  px     Ryd( 4p)     0.00023       1.29850
   251    O   12  px     Ryd( 5p)     0.00002       5.19414
   252    O   12  py     Val( 2p)     0.74524      -0.19211
   253    O   12  py     Ryd( 3p)     0.00154       1.04341
   254    O   12  py     Ryd( 4p)     0.00023       1.33375
   255    O   12  py     Ryd( 5p)     0.00001       5.31450
   256    O   12  pz     Val( 2p)     0.87325      -0.20501
   257    O   12  pz     Ryd( 3p)     0.00195       0.69465
   258    O   12  pz     Ryd( 4p)     0.00027       1.15266
   259    O   12  pz     Ryd( 5p)     0.00002       5.20615
   260    O   12  dxy    Ryd( 3d)     0.00051       3.49002
   261    O   12  dxz    Ryd( 3d)     0.00039       3.13599
   262    O   12  dyz    Ryd( 3d)     0.00035       3.41050
   263    O   12  dx2y2  Ryd( 3d)     0.00027       3.18354
   264    O   12  dz2    Ryd( 3d)     0.00036       3.22804
 
   265    C   13  S      Cor( 1S)     0.99961      -9.99099
   266    C   13  S      Val( 2S)     0.53570      -0.16768
   267    C   13  S      Ryd( 4S)     0.00064       1.66587
   268    C   13  S      Ryd( 3S)     0.00090       1.09007
   269    C   13  S      Ryd( 5S)     0.00001      22.22476
   270    C   13  px     Val( 2p)     0.50210       0.01502
   271    C   13  px     Ryd( 3p)     0.00121       0.73929
   272    C   13  px     Ryd( 4p)     0.00054       1.11121
   273    C   13  px     Ryd( 5p)     0.00007       2.56198
   274    C   13  py     Val( 2p)     0.46036       0.01595
   275    C   13  py     Ryd( 3p)     0.00127       0.93470
   276    C   13  py     Ryd( 4p)     0.00029       1.11584
   277    C   13  py     Ryd( 5p)     0.00005       2.54717
   278    C   13  pz     Val( 2p)     0.59286      -0.00211
   279    C   13  pz     Ryd( 3p)     0.00089       0.68237
   280    C   13  pz     Ryd( 4p)     0.00026       1.27658
   281    C   13  pz     Ryd( 5p)     0.00001       2.52856
   282    C   13  dxy    Ryd( 3d)     0.00079       2.27115
   283    C   13  dxz    Ryd( 3d)     0.00043       1.99719
   284    C   13  dyz    Ryd( 3d)     0.00079       2.23712
   285    C   13  dx2y2  Ryd( 3d)     0.00087       2.05332
   286    C   13  dz2    Ryd( 3d)     0.00048       2.16415
 
   287    H   14  S      Val( 1S)     0.40854       0.11667
   288    H   14  S      Ryd( 2S)     0.00063       0.36650
   289    H   14  S      Ryd( 4S)     0.00024       1.41255
   290    H   14  S      Ryd( 3S)     0.00002       1.23098
   291    H   14  px     Ryd( 2p)     0.00018       2.72325
   292    H   14  py     Ryd( 2p)     0.00007       1.91117
   293    H   14  pz     Ryd( 2p)     0.00005       1.83724
 
   294    H   15  S      Val( 1S)     0.41826       0.10625
   295    H   15  S      Ryd( 2S)     0.00051       0.52128
   296    H   15  S      Ryd( 4S)     0.00043       1.42604
   297    H   15  S      Ryd( 3S)     0.00005       1.21774
   298    H   15  px     Ryd( 2p)     0.00013       2.17126
   299    H   15  py     Ryd( 2p)     0.00014       2.61021
   300    H   15  pz     Ryd( 2p)     0.00007       1.84617
 
   301    H   16  S      Val( 1S)     0.41260       0.11363
   302    H   16  S      Ryd( 2S)     0.00072       0.43120
   303    H   16  S      Ryd( 4S)     0.00050       1.64146
   304    H   16  S      Ryd( 3S)     0.00003       1.05569
   305    H   16  px     Ryd( 2p)     0.00011       2.00205
   306    H   16  py     Ryd( 2p)     0.00012       2.14711
   307    H   16  pz     Ryd( 2p)     0.00010       2.50139
 
   308    H   17  S      Val( 1S)     0.42246       0.11273
   309    H   17  S      Ryd( 2S)     0.00067       0.56513
   310    H   17  S      Ryd( 3S)     0.00050       1.42854
   311    H   17  S      Ryd( 4S)     0.00006       1.46574
   312    H   17  px     Ryd( 2p)     0.00011       2.03933
   313    H   17  py     Ryd( 2p)     0.00012       2.11973
   314    H   17  pz     Ryd( 2p)     0.00023       2.72386
 
   315    H   18  S      Val( 1S)     0.38497       0.16123
   316    H   18  S      Ryd( 2S)     0.00083       0.53438
   317    H   18  S      Ryd( 4S)     0.00067       2.02270
   318    H   18  S      Ryd( 3S)     0.00008       0.91281
   319    H   18  px     Ryd( 2p)     0.00014       2.30812
   320    H   18  py     Ryd( 2p)     0.00007       2.08337
   321    H   18  pz     Ryd( 2p)     0.00010       2.42825
 
   322    H   19  S      Val( 1S)     0.39708       0.13978
   323    H   19  S      Ryd( 2S)     0.00026       0.54364
   324    H   19  S      Ryd( 3S)     0.00037       1.37392
   325    H   19  S      Ryd( 4S)     0.00005       1.48390
   326    H   19  px     Ryd( 2p)     0.00008       2.09404
   327    H   19  py     Ryd( 2p)     0.00013       2.58641
   328    H   19  pz     Ryd( 2p)     0.00008       2.12033
 
   329    H   20  S      Val( 1S)     0.40343       0.14095
   330    H   20  S      Ryd( 2S)     0.00045       0.66875
   331    H   20  S      Ryd( 4S)     0.00048       1.70673
   332    H   20  S      Ryd( 3S)     0.00002       1.02899
   333    H   20  px     Ryd( 2p)     0.00009       2.12331
   334    H   20  py     Ryd( 2p)     0.00017       2.75898
   335    H   20  pz     Ryd( 2p)     0.00009       1.97645
 
   336    H   21  S      Val( 1S)     0.39719       0.14967
   337    H   21  S      Ryd( 2S)     0.00098       0.64036
   338    H   21  S      Ryd( 4S)     0.00038       1.94370
   339    H   21  S      Ryd( 3S)     0.00002       0.95026
   340    H   21  px     Ryd( 2p)     0.00010       2.25735
   341    H   21  py     Ryd( 2p)     0.00009       1.98993
   342    H   21  pz     Ryd( 2p)     0.00014       2.67197
 
   343    H   22  S      Val( 1S)     0.41642       0.13200
   344    H   22  S      Ryd( 2S)     0.00061       0.64605
   345    H   22  S      Ryd( 4S)     0.00054       1.65694
   346    H   22  S      Ryd( 3S)     0.00003       1.17093
   347    H   22  px     Ryd( 2p)     0.00009       2.16214
   348    H   22  py     Ryd( 2p)     0.00009       2.04667
   349    H   22  pz     Ryd( 2p)     0.00016       2.74499
 
   350    H   23  S      Val( 1S)     0.39260       0.16475
   351    H   23  S      Ryd( 2S)     0.00166       0.63669
   352    H   23  S      Ryd( 4S)     0.00042       2.17049
   353    H   23  S      Ryd( 3S)     0.00001       0.70127
   354    H   23  px     Ryd( 2p)     0.00013       2.22191
   355    H   23  py     Ryd( 2p)     0.00017       2.79135
   356    H   23  pz     Ryd( 2p)     0.00006       2.02244
 
   357    H   24  S      Val( 1S)     0.40825       0.13958
   358    H   24  S      Ryd( 2S)     0.00058       0.42827
   359    H   24  S      Ryd( 4S)     0.00036       1.63285
   360    H   24  S      Ryd( 3S)     0.00002       1.23605
   361    H   24  px     Ryd( 2p)     0.00008       2.06204
   362    H   24  py     Ryd( 2p)     0.00005       2.05224
   363    H   24  pz     Ryd( 2p)     0.00016       2.69844
 
   364    H   25  S      Val( 1S)     0.40006       0.14287
   365    H   25  S      Ryd( 2S)     0.00053       0.54671
   366    H   25  S      Ryd( 4S)     0.00031       1.62532
   367    H   25  S      Ryd( 3S)     0.00001       1.10130
   368    H   25  px     Ryd( 2p)     0.00010       2.17485
   369    H   25  py     Ryd( 2p)     0.00012       2.55958
   370    H   25  pz     Ryd( 2p)     0.00008       1.99887
 
   371    H   26  S      Val( 1S)     0.40221       0.14412
   372    H   26  S      Ryd( 2S)     0.00053       0.46435
   373    H   26  S      Ryd( 4S)     0.00033       1.82362
   374    H   26  S      Ryd( 3S)     0.00001       1.09381
   375    H   26  px     Ryd( 2p)     0.00009       2.01849
   376    H   26  py     Ryd( 2p)     0.00009       2.06240
   377    H   26  pz     Ryd( 2p)     0.00015       2.75530
 
   378    H   27  S      Val( 1S)     0.39906       0.14306
   379    H   27  S      Ryd( 2S)     0.00087       0.39775
   380    H   27  S      Ryd( 4S)     0.00027       1.85222
   381    H   27  S      Ryd( 3S)     0.00002       0.96277
   382    H   27  px     Ryd( 2p)     0.00015       2.58179
   383    H   27  py     Ryd( 2p)     0.00011       2.18384
   384    H   27  pz     Ryd( 2p)     0.00008       2.03606
 
   385    H   28  S      Val( 1S)     0.40163       0.14388
   386    H   28  S      Ryd( 2S)     0.00051       0.46920
   387    H   28  S      Ryd( 4S)     0.00032       1.78920
   388    H   28  S      Ryd( 3S)     0.00001       1.07913
   389    H   28  px     Ryd( 2p)     0.00008       2.00329
   390    H   28  py     Ryd( 2p)     0.00010       2.02602
   391    H   28  pz     Ryd( 2p)     0.00016       2.81415
 
   392    H   29  S      Val( 1S)     0.39881       0.14277
   393    H   29  S      Ryd( 2S)     0.00096       0.39501
   394    H   29  S      Ryd( 4S)     0.00027       1.81532
   395    H   29  S      Ryd( 3S)     0.00002       1.00759
   396    H   29  px     Ryd( 2p)     0.00016       2.73951
   397    H   29  py     Ryd( 2p)     0.00010       2.00300
   398    H   29  pz     Ryd( 2p)     0.00009       2.05644
 
   399    H   30  S      Val( 1S)     0.40174       0.13873
   400    H   30  S      Ryd( 2S)     0.00049       0.63852
   401    H   30  S      Ryd( 4S)     0.00035       1.64004
   402    H   30  S      Ryd( 3S)     0.00001       0.98920
   403    H   30  px     Ryd( 2p)     0.00008       2.01684
   404    H   30  py     Ryd( 2p)     0.00013       2.66466
   405    H   30  pz     Ryd( 2p)     0.00009       2.06256
 
   406    H   31  S      Val( 1S)     0.40686       0.14112
   407    H   31  S      Ryd( 2S)     0.00056       0.42735
   408    H   31  S      Ryd( 4S)     0.00034       1.65675
   409    H   31  S      Ryd( 3S)     0.00002       1.20988
   410    H   31  px     Ryd( 2p)     0.00007       2.04487
   411    H   31  py     Ryd( 2p)     0.00006       2.13848
   412    H   31  pz     Ryd( 2p)     0.00016       2.67190
 
   413    H   32  S      Val( 1S)     0.41255       0.11515
   414    H   32  S      Ryd( 2S)     0.00062       0.39178
   415    H   32  S      Ryd( 4S)     0.00056       1.40443
   416    H   32  S      Ryd( 3S)     0.00004       1.21180
   417    H   32  px     Ryd( 2p)     0.00014       2.65686
   418    H   32  py     Ryd( 2p)     0.00010       1.94667
   419    H   32  pz     Ryd( 2p)     0.00011       1.98544
 
   420    H   33  S      Val( 1S)     0.41971       0.09973
   421    H   33  S      Ryd( 2S)     0.00067       0.44675
   422    H   33  S      Ryd( 3S)     0.00042       1.26440
   423    H   33  S      Ryd( 4S)     0.00005       1.33949
   424    H   33  px     Ryd( 2p)     0.00008       1.86940
   425    H   33  py     Ryd( 2p)     0.00008       2.08549
   426    H   33  pz     Ryd( 2p)     0.00017       2.57454
 
   427    H   34  S      Val( 1S)     0.40736       0.11511
   428    H   34  S      Ryd( 2S)     0.00066       0.35950
   429    H   34  S      Ryd( 3S)     0.00023       1.15758
   430    H   34  S      Ryd( 4S)     0.00003       1.41853
   431    H   34  px     Ryd( 2p)     0.00008       1.93821
   432    H   34  py     Ryd( 2p)     0.00009       2.23647
   433    H   34  pz     Ryd( 2p)     0.00014       2.29232

 WARNING:  Population inversion found on atom  C    3
           Population inversion found on atom  C    4
           Population inversion found on atom  C    5
           Population inversion found on atom  C    6
           Population inversion found on atom  C    9
           Population inversion found on atom  C   10
           Population inversion found on atom  C   11
           Population inversion found on atom  H   14
           Population inversion found on atom  H   15
           Population inversion found on atom  H   16
           Population inversion found on atom  H   18
           Population inversion found on atom  H   19
           Population inversion found on atom  H   20
           Population inversion found on atom  H   21
           Population inversion found on atom  H   22
           Population inversion found on atom  H   23
           Population inversion found on atom  H   24
           Population inversion found on atom  H   25
           Population inversion found on atom  H   26
           Population inversion found on atom  H   27
           Population inversion found on atom  H   28
           Population inversion found on atom  H   29
           Population inversion found on atom  H   30
           Population inversion found on atom  H   31
           Population inversion found on atom  H   32


 Summary of Natural Population Analysis:                  
                                                          
                                       Natural Population 
                Natural  -----------------------------------------------
    Atom  No    Charge         Core      Valence    Rydberg      Total
 -----------------------------------------------------------------------
      C    1   -0.10659      0.99960     2.09680    0.01018     3.10659
      O    2   -0.30723      0.99988     3.29722    0.01013     4.30723
      C    3    0.22720      0.99957     1.75518    0.01804     2.77280
      C    4   -0.21539      0.99959     2.20779    0.00801     3.21539
      C    5   -0.19583      0.99962     2.18626    0.00996     3.19583
      C    6   -0.08791      0.99959     2.07701    0.01131     3.08791
      N    7   -0.28398      0.99974     2.77143    0.01282     3.78398
      C    8   -0.08445      0.99963     2.07358    0.01124     3.08445
      C    9   -0.20478      0.99964     2.19790    0.00723     3.20478
      C   10   -0.20529      0.99965     2.19827    0.00737     3.20529
      C   11   -0.08772      0.99962     2.07735    0.01074     3.08772
      O   12   -0.30596      0.99987     3.29623    0.00985     4.30596
      C   13   -0.10016      0.99961     2.09103    0.00953     3.10016
      H   14    0.09027      0.00000     0.40854    0.00119     0.40973
      H   15    0.08041      0.00000     0.41826    0.00132     0.41959
      H   16    0.08582      0.00000     0.41260    0.00158     0.41418
      H   17    0.07586      0.00000     0.42246    0.00168     0.42414
      H   18    0.11314      0.00000     0.38497    0.00189     0.38686
      H   19    0.10194      0.00000     0.39708    0.00098     0.39806
      H   20    0.09528      0.00000     0.40343    0.00128     0.40472
      H   21    0.10110      0.00000     0.39719    0.00171     0.39890
      H   22    0.08205      0.00000     0.41642    0.00153     0.41795
      H   23    0.10494      0.00000     0.39260    0.00245     0.39506
      H   24    0.09050      0.00000     0.40825    0.00125     0.40950
      H   25    0.09880      0.00000     0.40006    0.00115     0.40120
      H   26    0.09659      0.00000     0.40221    0.00119     0.40341
      H   27    0.09945      0.00000     0.39906    0.00149     0.40055
      H   28    0.09720      0.00000     0.40163    0.00117     0.40280
      H   29    0.09960      0.00000     0.39881    0.00159     0.40040
      H   30    0.09710      0.00000     0.40174    0.00116     0.40290
      H   31    0.09193      0.00000     0.40686    0.00121     0.40807
      H   32    0.08587      0.00000     0.41255    0.00157     0.41413
      H   33    0.07882      0.00000     0.41971    0.00147     0.42118
      H   34    0.09140      0.00000     0.40736    0.00124     0.40860
 =======================================================================
   * Total *    0.00000     12.99561    38.83786    0.16653    52.00000

                                 Natural Population      
 --------------------------------------------------------
   Core                      12.99561 ( 99.9663% of  13)
   Valence                   38.83786 ( 99.5843% of  39)
   Natural Minimal Basis     51.83347 ( 99.6798% of  52)
   Natural Rydberg Basis      0.16653 (  0.3202% of  52)
 --------------------------------------------------------

    Atom  No          Natural Electron Configuration
 ----------------------------------------------------------------------------
      C    1      [core]2S( 0.54)2p( 1.56)
      O    2      [core]2S( 0.81)2p( 2.49)
      C    3      [core]2S( 0.45)2p( 1.30)3p( 0.01)3d( 0.01)
      C    4      [core]2S( 0.52)2p( 1.69)
      C    5      [core]2S( 0.51)2p( 1.68)3p( 0.01)
      C    6      [core]2S( 0.50)2p( 1.58)3p( 0.01)
      N    7      [core]2S( 0.65)2p( 2.12)3p( 0.01)
      C    8      [core]2S( 0.50)2p( 1.57)3p( 0.01)
      C    9      [core]2S( 0.52)2p( 1.68)
      C   10      [core]2S( 0.52)2p( 1.68)
      C   11      [core]2S( 0.50)2p( 1.58)3p( 0.01)
      O   12      [core]2S( 0.81)2p( 2.48)
      C   13      [core]2S( 0.54)2p( 1.56)
      H   14            1S( 0.41)
      H   15            1S( 0.42)
      H   16            1S( 0.41)
      H   17            1S( 0.42)
      H   18            1S( 0.38)
      H   19            1S( 0.40)
      H   20            1S( 0.40)
      H   21            1S( 0.40)
      H   22            1S( 0.42)
      H   23            1S( 0.39)
      H   24            1S( 0.41)
      H   25            1S( 0.40)
      H   26            1S( 0.40)
      H   27            1S( 0.40)
      H   28            1S( 0.40)
      H   29            1S( 0.40)
      H   30            1S( 0.40)
      H   31            1S( 0.41)
      H   32            1S( 0.41)
      H   33            1S( 0.42)
      H   34            1S( 0.41)


 NBO analysis skipped by request.
 1\1\GINC-NODE320\SP\UB3LYP\6-311++G(d,p)\C10H21N1O2(1-,2)\VSC10255\13-
 Dec-2020\0\\# B3LYP/6-311++G(d,p) empiricaldispersion=gd3bj scf=xqc po
 p=npa geom=check\\CID_23374598_JID_3645_Energie_anion\\-1,2\C,0,0.5889
 723539,0.1414199439,0.4206230451\O,0,1.1311576438,0.0811870582,1.73030
 5296\C,0,1.9650821002,-1.0318552282,2.0051768593\C,0,1.2866743752,-2.3
 990285134,1.8411278875\C,0,1.4062723354,-3.0868180664,0.4691468434\C,0
 ,2.692072241,-3.9115985059,0.3229851024\N,0,2.7741166745,-4.9772230737
 ,1.3312054405\C,0,4.1324234729,-5.5024807313,1.5095472051\C,0,4.360832
 3456,-6.5376319641,0.3778867293\C,0,2.9293829659,-7.0377823329,0.04829
 09173\C,0,2.0080836008,-6.1759210887,0.9605820232\O,0,3.1395022466,-1.
 01046822,1.2248623016\C,0,3.966151099,0.1151288932,1.4752353661\H,0,0.
 1100952164,1.1198338973,0.3307555892\H,0,-0.1676121268,-0.637318745,0.
 2529694608\H,0,1.3688286834,0.0499533131,-0.3454586723\H,0,2.224002999
 4,-0.8729622374,3.0619844393\H,0,1.7151489218,-3.0859926073,2.57873118
 9\H,0,0.2353133352,-2.258599062,2.1169245969\H,0,0.5382802732,-3.74488
 93375,0.3336497675\H,0,1.3725165734,-2.3631853823,-0.3508072711\H,0,2.
 7557305693,-4.2995181907,-0.7104499658\H,0,3.5436104738,-3.2446311116,
 0.4721470621\H,0,4.1808257886,-6.0034026194,2.4858160313\H,0,4.8617711
 516,-4.6879021786,1.5173099627\H,0,4.8141031471,-6.0566737415,-0.49513
 4017\H,0,5.0312238011,-7.345372849,0.6878939768\H,0,2.6939154649,-6.88
 16623665,-1.0090874816\H,0,2.8024148311,-8.1058514868,0.2506671351\H,0
 ,1.0631126852,-5.9013723399,0.484656619\H,0,1.7650933707,-6.7285637359
 ,1.8768531218\H,0,3.451541754,1.0538447655,1.2406400988\H,0,4.28503235
 36,0.1441281107,2.5282406621\H,0,4.8461172781,0.0084897339,0.836522678
 5\\Version=ES64L-G16RevA.03\State=2-A\HF=-599.078602\S2=0.750034\S2-1=
 0.\S2A=0.75\RMSD=4.487e-09\Dipole=-0.5041457,-0.0696051,0.4043055\Quad
 rupole=9.6143645,-27.2101272,17.5957626,8.7249351,-0.9686587,-0.781428
 3\PG=C01 [X(C10H21N1O2)]\\@


 GOD DOES NOT PLAY WITH DICE.
               -- A. EINSTEIN
 Job cpu time:       0 days  0 hours 35 minutes 30.9 seconds.
 Elapsed time:       0 days  0 hours  9 minutes 10.0 seconds.
 File lengths (MBytes):  RWF=    236 Int=      0 D2E=      0 Chk=     24 Scr=      8
 Normal termination of Gaussian 16 at Sun Dec 13 16:28:01 2020.
