 Entering Gaussian System, Link 0=g16
 Initial command:
 /apps/brussel/CO7/broadwell/software/Gaussian/G16.A.03-intel-2017b/g16/l1.exe "/scratch/brussel/102/vsc10255/3546946[3411].master01.hydra.brussel.vsc/Gau-7913.inp" -scrdir="/scratch/brussel/102/vsc10255/3546946[3411].master01.hydra.brussel.vsc/"
 Entering Link 1 = /apps/brussel/CO7/broadwell/software/Gaussian/G16.A.03-intel-2017b/g16/l1.exe.bin PID=      7914.
  
 Copyright (c) 1988,1990,1992,1993,1995,1998,2003,2009,2016,
            Gaussian, Inc.  All Rights Reserved.
  
 This is part of the Gaussian(R) 16 program.  It is based on
 the Gaussian(R) 09 system (copyright 2009, Gaussian, Inc.),
 the Gaussian(R) 03 system (copyright 2003, Gaussian, Inc.),
 the Gaussian(R) 98 system (copyright 1998, Gaussian, Inc.),
 the Gaussian(R) 94 system (copyright 1995, Gaussian, Inc.),
 the Gaussian 92(TM) system (copyright 1992, Gaussian, Inc.),
 the Gaussian 90(TM) system (copyright 1990, Gaussian, Inc.),
 the Gaussian 88(TM) system (copyright 1988, Gaussian, Inc.),
 the Gaussian 86(TM) system (copyright 1986, Carnegie Mellon
 University), and the Gaussian 82(TM) system (copyright 1983,
 Carnegie Mellon University). Gaussian is a federally registered
 trademark of Gaussian, Inc.
  
 This software contains proprietary and confidential information,
 including trade secrets, belonging to Gaussian, Inc.
  
 This software is provided under written license and may be
 used, copied, transmitted, or stored only in accord with that
 written license.
  
 The following legend is applicable only to US Government
 contracts under FAR:
  
                    RESTRICTED RIGHTS LEGEND
  
 Use, reproduction and disclosure by the US Government is
 subject to restrictions as set forth in subparagraphs (a)
 and (c) of the Commercial Computer Software - Restricted
 Rights clause in FAR 52.227-19.
  
 Gaussian, Inc.
 340 Quinnipiac St., Bldg. 40, Wallingford CT 06492
  
  
 ---------------------------------------------------------------
 Warning -- This program may not be used in any manner that
 competes with the business of Gaussian, Inc. or will provide
 assistance to any competitor of Gaussian, Inc.  The licensee
 of this program is prohibited from giving any competitor of
 Gaussian, Inc. access to this program.  By using this program,
 the user acknowledges that Gaussian, Inc. is engaged in the
 business of creating and licensing software in the field of
 computational chemistry and represents and warrants to the
 licensee that it is not a competitor of Gaussian, Inc. and that
 it will not use this program in any manner prohibited above.
 ---------------------------------------------------------------
  

 Cite this work as:
 Gaussian 16, Revision A.03,
 M. J. Frisch, G. W. Trucks, H. B. Schlegel, G. E. Scuseria, 
 M. A. Robb, J. R. Cheeseman, G. Scalmani, V. Barone, 
 G. A. Petersson, H. Nakatsuji, X. Li, M. Caricato, A. V. Marenich, 
 J. Bloino, B. G. Janesko, R. Gomperts, B. Mennucci, H. P. Hratchian, 
 J. V. Ortiz, A. F. Izmaylov, J. L. Sonnenberg, D. Williams-Young, 
 F. Ding, F. Lipparini, F. Egidi, J. Goings, B. Peng, A. Petrone, 
 T. Henderson, D. Ranasinghe, V. G. Zakrzewski, J. Gao, N. Rega, 
 G. Zheng, W. Liang, M. Hada, M. Ehara, K. Toyota, R. Fukuda, 
 J. Hasegawa, M. Ishida, T. Nakajima, Y. Honda, O. Kitao, H. Nakai, 
 T. Vreven, K. Throssell, J. A. Montgomery, Jr., J. E. Peralta, 
 F. Ogliaro, M. J. Bearpark, J. J. Heyd, E. N. Brothers, K. N. Kudin, 
 V. N. Staroverov, T. A. Keith, R. Kobayashi, J. Normand, 
 K. Raghavachari, A. P. Rendell, J. C. Burant, S. S. Iyengar, 
 J. Tomasi, M. Cossi, J. M. Millam, M. Klene, C. Adamo, R. Cammi, 
 J. W. Ochterski, R. L. Martin, K. Morokuma, O. Farkas, 
 J. B. Foresman, and D. J. Fox, Gaussian, Inc., Wallingford CT, 2016.
 
 ******************************************
 Gaussian 16:  ES64L-G16RevA.03 25-Dec-2016
                 9-Dec-2020 
 ******************************************
 %chk=JID_3411.chk
 %mem=8GB
 %nprocshared=4
 Will use up to    4 processors via shared memory.
 -----------------------------------------------------------
 # opt freq B3LYP/6-31G(d) empiricaldispersion=gd3bj scf=xqc
 -----------------------------------------------------------
 1/18=20,19=15,26=3,38=1/1,3;
 2/9=110,12=2,17=6,18=5,40=1/2;
 3/5=1,6=6,7=1,11=2,25=1,30=1,71=1,74=-5,124=41/1,2,3;
 4//1;
 5/5=2,8=3,13=1,38=5/2,8;
 6/7=2,8=2,9=2,10=2,28=1/1;
 7//1,2,3,16;
 1/18=20,19=15,26=3/3(2);
 2/9=110/2;
 99//99;
 2/9=110/2;
 3/5=1,6=6,7=1,11=2,25=1,30=1,71=1,74=-5,124=41/1,2,3;
 4/5=5,16=3,69=1/1;
 5/5=2,8=3,13=1,38=5/2,8;
 7//1,2,3,16;
 1/18=20,19=15,26=3/3(-5);
 2/9=110/2;
 6/7=2,8=2,9=2,10=2,19=2,28=1/1;
 99/9=1/99;
 -------------------------------
 CID_136956082_JID_3411_neutraal
 -------------------------------
 Symbolic Z-matrix:
 Charge =  0 Multiplicity = 1
 C                    -2.365    -1.272     0.016 
 C                    -1.10881  -0.45004   0.053 
 N                    -1.16415   0.81109   0.32893 
 C                     0.00546   1.53038   0.36862 
 C                     1.1953    0.9539    0.13118 
 C                     1.24982  -0.47637  -0.18801 
 O                     2.30869  -1.04503  -0.42576 
 N                     0.05099  -1.11435  -0.20306 
 N                    -0.11858   2.87219   0.68349 
 C                     0.77537   3.96466   0.28495 
 C                     0.53848   4.34586  -1.1708 
 C                     0.5106    5.16112   1.21791 
 O                     0.70034   4.76304   2.57655 
 H                    -2.18869  -2.25687  -0.42447 
 H                    -2.73643  -1.39978   1.03691 
 H                    -3.12535  -0.74986  -0.572 
 H                     2.14004   1.47354   0.16937 
 H                     0.0695   -2.10055  -0.41489 
 H                    -1.11007   3.11033   0.64236 
 H                     1.81794   3.65912   0.42717 
 H                    -0.50092   4.64851  -1.33988 
 H                     1.18728   5.17734  -1.46515 
 H                     0.74902   3.50303  -1.83763 
 H                     1.19477   5.9879    1.00391 
 H                    -0.51747   5.52567   1.11752 
 H                     0.34369   3.85195   2.62571 
 

 GradGradGradGradGradGradGradGradGradGradGradGradGradGradGradGradGradGrad
 Berny optimization.
 Initialization pass.
                           ----------------------------
                           !    Initial Parameters    !
                           ! (Angstroms and Degrees)  !
 --------------------------                            --------------------------
 ! Name  Definition              Value          Derivative Info.                !
 --------------------------------------------------------------------------------
 ! R1    R(1,2)                  1.5017         estimate D2E/DX2                !
 ! R2    R(1,14)                 1.0932         estimate D2E/DX2                !
 ! R3    R(1,15)                 1.0939         estimate D2E/DX2                !
 ! R4    R(1,16)                 1.0938         estimate D2E/DX2                !
 ! R5    R(2,3)                  1.2921         estimate D2E/DX2                !
 ! R6    R(2,8)                  1.3609         estimate D2E/DX2                !
 ! R7    R(3,4)                  1.3737         estimate D2E/DX2                !
 ! R8    R(4,5)                  1.3433         estimate D2E/DX2                !
 ! R9    R(4,9)                  1.3838         estimate D2E/DX2                !
 ! R10   R(5,6)                  1.4665         estimate D2E/DX2                !
 ! R11   R(5,17)                 1.0789         estimate D2E/DX2                !
 ! R12   R(6,7)                  1.2252         estimate D2E/DX2                !
 ! R13   R(6,8)                  1.3581         estimate D2E/DX2                !
 ! R14   R(8,18)                 1.0089         estimate D2E/DX2                !
 ! R15   R(9,10)                 1.4668         estimate D2E/DX2                !
 ! R16   R(9,19)                 1.0205         estimate D2E/DX2                !
 ! R17   R(10,11)                1.5234         estimate D2E/DX2                !
 ! R18   R(10,12)                1.5401         estimate D2E/DX2                !
 ! R19   R(10,20)                1.0957         estimate D2E/DX2                !
 ! R20   R(11,21)                1.0957         estimate D2E/DX2                !
 ! R21   R(11,22)                1.095          estimate D2E/DX2                !
 ! R22   R(11,23)                1.0951         estimate D2E/DX2                !
 ! R23   R(12,13)                1.4284         estimate D2E/DX2                !
 ! R24   R(12,24)                1.0943         estimate D2E/DX2                !
 ! R25   R(12,25)                1.0954         estimate D2E/DX2                !
 ! R26   R(13,26)                0.9796         estimate D2E/DX2                !
 ! A1    A(2,1,14)             111.601          estimate D2E/DX2                !
 ! A2    A(2,1,15)             108.9652         estimate D2E/DX2                !
 ! A3    A(2,1,16)             109.4782         estimate D2E/DX2                !
 ! A4    A(14,1,15)            109.0002         estimate D2E/DX2                !
 ! A5    A(14,1,16)            108.9995         estimate D2E/DX2                !
 ! A6    A(15,1,16)            108.7493         estimate D2E/DX2                !
 ! A7    A(1,2,3)              120.2425         estimate D2E/DX2                !
 ! A8    A(1,2,8)              116.1737         estimate D2E/DX2                !
 ! A9    A(3,2,8)              123.5804         estimate D2E/DX2                !
 ! A10   A(2,3,4)              118.7353         estimate D2E/DX2                !
 ! A11   A(3,4,5)              121.6254         estimate D2E/DX2                !
 ! A12   A(3,4,9)              115.9754         estimate D2E/DX2                !
 ! A13   A(5,4,9)              122.3941         estimate D2E/DX2                !
 ! A14   A(4,5,6)              119.3384         estimate D2E/DX2                !
 ! A15   A(4,5,17)             124.2406         estimate D2E/DX2                !
 ! A16   A(6,5,17)             116.417          estimate D2E/DX2                !
 ! A17   A(5,6,7)              121.8063         estimate D2E/DX2                !
 ! A18   A(5,6,8)              115.3254         estimate D2E/DX2                !
 ! A19   A(7,6,8)              122.8682         estimate D2E/DX2                !
 ! A20   A(2,8,6)              121.3925         estimate D2E/DX2                !
 ! A21   A(2,8,18)             122.1625         estimate D2E/DX2                !
 ! A22   A(6,8,18)             116.4449         estimate D2E/DX2                !
 ! A23   A(4,9,10)             127.2818         estimate D2E/DX2                !
 ! A24   A(4,9,19)             107.709          estimate D2E/DX2                !
 ! A25   A(10,9,19)            114.0399         estimate D2E/DX2                !
 ! A26   A(9,10,11)            110.5639         estimate D2E/DX2                !
 ! A27   A(9,10,12)            108.0132         estimate D2E/DX2                !
 ! A28   A(9,10,20)            109.6913         estimate D2E/DX2                !
 ! A29   A(11,10,12)           110.9619         estimate D2E/DX2                !
 ! A30   A(11,10,20)           109.9856         estimate D2E/DX2                !
 ! A31   A(12,10,20)           107.5526         estimate D2E/DX2                !
 ! A32   A(10,11,21)           111.3522         estimate D2E/DX2                !
 ! A33   A(10,11,22)           110.7794         estimate D2E/DX2                !
 ! A34   A(10,11,23)           111.0628         estimate D2E/DX2                !
 ! A35   A(21,11,22)           108.1108         estimate D2E/DX2                !
 ! A36   A(21,11,23)           107.517          estimate D2E/DX2                !
 ! A37   A(22,11,23)           107.8674         estimate D2E/DX2                !
 ! A38   A(10,12,13)           109.6844         estimate D2E/DX2                !
 ! A39   A(10,12,24)           111.1616         estimate D2E/DX2                !
 ! A40   A(10,12,25)           111.3686         estimate D2E/DX2                !
 ! A41   A(13,12,24)           108.2715         estimate D2E/DX2                !
 ! A42   A(13,12,25)           107.7332         estimate D2E/DX2                !
 ! A43   A(24,12,25)           108.5072         estimate D2E/DX2                !
 ! A44   A(12,13,26)           104.9844         estimate D2E/DX2                !
 ! D1    D(14,1,2,3)           168.3971         estimate D2E/DX2                !
 ! D2    D(14,1,2,8)           -12.2535         estimate D2E/DX2                !
 ! D3    D(15,1,2,3)           -71.1832         estimate D2E/DX2                !
 ! D4    D(15,1,2,8)           108.1661         estimate D2E/DX2                !
 ! D5    D(16,1,2,3)            47.6366         estimate D2E/DX2                !
 ! D6    D(16,1,2,8)          -133.0141         estimate D2E/DX2                !
 ! D7    D(1,2,3,4)            179.3023         estimate D2E/DX2                !
 ! D8    D(8,2,3,4)              0.0033         estimate D2E/DX2                !
 ! D9    D(1,2,8,6)           -179.5373         estimate D2E/DX2                !
 ! D10   D(1,2,8,18)             0.5754         estimate D2E/DX2                !
 ! D11   D(3,2,8,6)             -0.2121         estimate D2E/DX2                !
 ! D12   D(3,2,8,18)           179.9007         estimate D2E/DX2                !
 ! D13   D(2,3,4,5)             -0.136          estimate D2E/DX2                !
 ! D14   D(2,3,4,9)           -179.3319         estimate D2E/DX2                !
 ! D15   D(3,4,5,6)              0.4444         estimate D2E/DX2                !
 ! D16   D(3,4,5,17)          -178.8012         estimate D2E/DX2                !
 ! D17   D(9,4,5,6)            179.5883         estimate D2E/DX2                !
 ! D18   D(9,4,5,17)             0.3427         estimate D2E/DX2                !
 ! D19   D(3,4,9,10)          -152.7276         estimate D2E/DX2                !
 ! D20   D(3,4,9,19)           -11.4167         estimate D2E/DX2                !
 ! D21   D(5,4,9,10)            28.0833         estimate D2E/DX2                !
 ! D22   D(5,4,9,19)           169.3942         estimate D2E/DX2                !
 ! D23   D(4,5,6,7)            179.2384         estimate D2E/DX2                !
 ! D24   D(4,5,6,8)             -0.6078         estimate D2E/DX2                !
 ! D25   D(17,5,6,7)            -1.4579         estimate D2E/DX2                !
 ! D26   D(17,5,6,8)           178.6958         estimate D2E/DX2                !
 ! D27   D(5,6,8,2)              0.4931         estimate D2E/DX2                !
 ! D28   D(5,6,8,18)          -179.6134         estimate D2E/DX2                !
 ! D29   D(7,6,8,2)           -179.3513         estimate D2E/DX2                !
 ! D30   D(7,6,8,18)             0.5421         estimate D2E/DX2                !
 ! D31   D(4,9,10,11)           76.5224         estimate D2E/DX2                !
 ! D32   D(4,9,10,12)         -161.8915         estimate D2E/DX2                !
 ! D33   D(4,9,10,20)          -44.9427         estimate D2E/DX2                !
 ! D34   D(19,9,10,11)         -62.7828         estimate D2E/DX2                !
 ! D35   D(19,9,10,12)          58.8033         estimate D2E/DX2                !
 ! D36   D(19,9,10,20)         175.7521         estimate D2E/DX2                !
 ! D37   D(9,10,11,21)          58.2873         estimate D2E/DX2                !
 ! D38   D(9,10,11,22)         178.6404         estimate D2E/DX2                !
 ! D39   D(9,10,11,23)         -61.5056         estimate D2E/DX2                !
 ! D40   D(12,10,11,21)        -61.5416         estimate D2E/DX2                !
 ! D41   D(12,10,11,22)         58.8115         estimate D2E/DX2                !
 ! D42   D(12,10,11,23)        178.6655         estimate D2E/DX2                !
 ! D43   D(20,10,11,21)        179.5783         estimate D2E/DX2                !
 ! D44   D(20,10,11,22)        -60.0686         estimate D2E/DX2                !
 ! D45   D(20,10,11,23)         59.7854         estimate D2E/DX2                !
 ! D46   D(9,10,12,13)          56.8829         estimate D2E/DX2                !
 ! D47   D(9,10,12,24)         176.5883         estimate D2E/DX2                !
 ! D48   D(9,10,12,25)         -62.283          estimate D2E/DX2                !
 ! D49   D(11,10,12,13)        178.2224         estimate D2E/DX2                !
 ! D50   D(11,10,12,24)        -62.0723         estimate D2E/DX2                !
 ! D51   D(11,10,12,25)         59.0565         estimate D2E/DX2                !
 ! D52   D(20,10,12,13)        -61.4424         estimate D2E/DX2                !
 ! D53   D(20,10,12,24)         58.263          estimate D2E/DX2                !
 ! D54   D(20,10,12,25)        179.3917         estimate D2E/DX2                !
 ! D55   D(10,12,13,26)        -38.014          estimate D2E/DX2                !
 ! D56   D(24,12,13,26)       -159.4722         estimate D2E/DX2                !
 ! D57   D(25,12,13,26)         83.3642         estimate D2E/DX2                !
 --------------------------------------------------------------------------------
 Trust Radius=3.00D-01 FncErr=1.00D-07 GrdErr=1.00D-06 EigMax=2.50D+02 EigMin=1.00D-04
 Number of steps in this run=    137 maximum allowed number of steps=    156.
 GradGradGradGradGradGradGradGradGradGradGradGradGradGradGradGradGradGrad

                          Input orientation:                          
 ---------------------------------------------------------------------
 Center     Atomic      Atomic             Coordinates (Angstroms)
 Number     Number       Type             X           Y           Z
 ---------------------------------------------------------------------
      1          6           0       -2.365000   -1.272000    0.016000
      2          6           0       -1.108810   -0.450040    0.053000
      3          7           0       -1.164150    0.811090    0.328930
      4          6           0        0.005460    1.530380    0.368620
      5          6           0        1.195300    0.953900    0.131180
      6          6           0        1.249820   -0.476370   -0.188010
      7          8           0        2.308690   -1.045030   -0.425760
      8          7           0        0.050990   -1.114350   -0.203060
      9          7           0       -0.118580    2.872190    0.683490
     10          6           0        0.775370    3.964660    0.284950
     11          6           0        0.538480    4.345860   -1.170800
     12          6           0        0.510600    5.161120    1.217910
     13          8           0        0.700340    4.763040    2.576550
     14          1           0       -2.188690   -2.256870   -0.424470
     15          1           0       -2.736430   -1.399780    1.036910
     16          1           0       -3.125350   -0.749860   -0.572000
     17          1           0        2.140040    1.473540    0.169370
     18          1           0        0.069500   -2.100550   -0.414890
     19          1           0       -1.110070    3.110330    0.642360
     20          1           0        1.817940    3.659120    0.427170
     21          1           0       -0.500920    4.648510   -1.339880
     22          1           0        1.187280    5.177340   -1.465150
     23          1           0        0.749020    3.503030   -1.837630
     24          1           0        1.194770    5.987900    1.003910
     25          1           0       -0.517470    5.525670    1.117520
     26          1           0        0.343690    3.851950    2.625710
 ---------------------------------------------------------------------
                    Distance matrix (angstroms):
                    1          2          3          4          5
     1  C    0.000000
     2  C    1.501666   0.000000
     3  N    2.424712   1.292149   0.000000
     4  C    3.687378   2.294183   1.373660   0.000000
     5  C    4.200433   2.699274   2.372025   1.343289   0.000000
     6  C    3.706962   2.371058   2.784247   2.425967   1.466468
     7  O    4.700005   3.501790   4.009408   3.545228   2.354897
     8  N    2.431018   1.360886   2.338140   2.706194   2.387220
     9  N    4.760909   3.523533   2.338175   1.383829   2.389804
    10  C    6.112026   4.805571   3.702523   2.554502   3.043791
    11  C    6.434209   5.216503   4.200326   3.252822   3.692148
    12  C    7.148335   5.955218   4.745296   3.762809   4.398920
    13  O    7.237018   6.067745   4.913861   3.975915   4.553501
    14  H    1.093192   2.158414   3.321095   4.448207   4.697785
    15  H    1.093867   2.125848   2.803791   4.068220   4.671045
    16  H    1.093849   2.132358   2.663559   3.985754   4.697369
    17  H    5.277963   3.777397   3.373718   2.144613   1.078897
    18  H    2.607480   2.081230   3.248509   3.715056   3.300800
    19  H    4.601303   3.608820   2.321135   1.953352   3.197847
    20  H    6.479351   5.058761   4.124777   2.796434   2.791685
    21  H    6.353396   5.320231   4.236814   3.591396   4.323346
    22  H    7.510425   6.264520   5.273716   4.249674   4.515061
    23  H    5.994495   4.759493   3.949778   3.051519   3.251683
    24  H    8.145801   6.903462   5.728827   4.656988   5.109091
    25  H    7.129869   6.098524   4.823622   4.098372   4.980716
    26  H    6.356292   5.218784   4.098245   3.255540   3.917475
                    6          7          8          9         10
     6  C    0.000000
     7  O    1.225196   0.000000
     8  N    1.358101   2.269716   0.000000
     9  N    3.720872   4.739904   4.087447   0.000000
    10  C    4.491274   5.287076   5.153564   1.466789   0.000000
    11  C    4.972503   5.722799   5.566692   2.458012   1.523364
    12  C    5.856992   6.667164   6.450730   2.433243   1.540141
    13  O    5.949465   6.733077   6.533881   2.798146   2.427853
    14  H    3.879361   4.657788   2.523993   5.640939   6.927941
    15  H    4.271218   5.264835   3.064100   5.022726   6.455649
    16  H    4.400495   5.444015   3.218401   4.871978   6.178728
    17  H    2.173099   2.593418   3.346641   2.705902   2.842774
    18  H    2.020542   2.475523   1.008863   5.096073   6.146121
    19  H    4.372987   5.485965   4.462143   1.020517   2.100596
    20  H    4.219418   4.805970   5.128871   2.105960   1.095689
    21  H    5.536812   6.414509   5.899790   2.719471   2.176382
    22  H    5.796502   6.407478   6.516854   3.411105   2.168666
    23  H    4.336781   5.011067   4.947652   2.739842   2.172359
    24  H    6.573469   7.262705   7.294310   3.396352   2.187761
    25  H    6.391573   7.317308   6.793890   2.718171   2.191201
    26  H    5.241416   6.095335   5.722914   2.223925   2.382899
                   11         12         13         14         15
    11  C    0.000000
    12  C    2.524156   0.000000
    13  O    3.773973   1.428416   0.000000
    14  H    7.182653   8.062887   8.162827   0.000000
    15  H    6.972187   7.322662   7.222342   1.780521   0.000000
    16  H    6.304647   7.166840   7.412242   1.780499   1.778271
    17  H    3.551235   4.165664   4.322969   5.745129   5.726129
    18  H    6.507499   7.456035   7.513690   2.263614   3.236054
    19  H    2.744413   2.676484   3.122519   5.577489   4.810593
    20  H    2.159198   2.142525   2.662237   7.195645   6.834218
    21  H    1.095690   2.797898   4.098117   7.167344   6.872296
    22  H    1.094962   2.767123   4.091955   8.230897   8.056942
    23  H    1.095149   3.484599   4.590749   6.618430   6.667000
    24  H    2.802923   1.094280   2.053762   9.025758   8.368586
    25  H    2.782695   1.095401   2.047788   8.107937   7.272698
    26  H    3.833455   1.929685   0.979643   7.282460   6.292225
                   16         17         18         19         20
    16  H    0.000000
    17  H    5.763460   0.000000
    18  H    3.472191   4.171644   0.000000
    19  H    4.520740   3.669607   5.446323   0.000000
    20  H    6.698773   2.224178   6.077821   2.986757   0.000000
    21  H    6.051419   4.396924   6.835993   2.581925   3.078712
    22  H    7.384321   4.159031   7.437752   3.740581   2.506711
    23  H    5.890640   3.175187   5.821172   3.124225   2.509238
    24  H    8.157471   4.687157   8.288682   3.704513   2.478747
    25  H    7.002699   4.937723   7.800772   2.531960   3.068344
    26  H    6.590618   3.862294   6.689745   2.568481   2.654086
                   21         22         23         24         25
    21  H    0.000000
    22  H    1.773520   0.000000
    23  H    1.766983   1.770347   0.000000
    24  H    3.187896   2.598715   3.801003   0.000000
    25  H    2.609310   3.114112   3.798418   1.777169   0.000000
    26  H    4.132043   4.382173   4.495269   2.813691   2.411964
                   26
    26  H    0.000000
 Stoichiometry    C8H13N3O2
 Framework group  C1[X(C8H13N3O2)]
 Deg. of freedom    72
 Full point group                 C1      NOp   1
 Largest Abelian subgroup         C1      NOp   1
 Largest concise Abelian subgroup C1      NOp   1
                         Standard orientation:                         
 ---------------------------------------------------------------------
 Center     Atomic      Atomic             Coordinates (Angstroms)
 Number     Number       Type             X           Y           Z
 ---------------------------------------------------------------------
      1          6           0       -3.264930   -2.084701    0.142378
      2          6           0       -2.268647   -0.966293    0.034742
      3          7           0       -1.001684   -1.219846    0.047629
      4          6           0       -0.117804   -0.174627   -0.067324
      5          6           0       -0.540093    1.094205   -0.194459
      6          6           0       -1.979377    1.375168   -0.201474
      7          8           0       -2.414060    2.516326   -0.301037
      8          7           0       -2.784221    0.287228   -0.087231
      9          7           0        1.224192   -0.512257   -0.061250
     10          6           0        2.348343    0.322238    0.376212
     11          6           0        2.416028    0.374246    1.897183
     12          6           0        3.640903   -0.273067   -0.212800
     13          8           0        3.531870   -0.347324   -1.635111
     14          1           0       -4.275286   -1.707769    0.321735
     15          1           0       -3.258667   -2.657300   -0.789629
     16          1           0       -2.981166   -2.748091    0.964507
     17          1           0        0.115380    1.943852   -0.306139
     18          1           0       -3.778029    0.460636   -0.096242
     19          1           0        1.297059   -1.489847    0.222410
     20          1           0        2.236295    1.334265   -0.028485
     21          1           0        2.520835   -0.628424    2.326373
     22          1           0        3.268457    0.976786    2.227717
     23          1           0        1.507397    0.819014    2.316616
     24          1           0        4.508860    0.346405    0.032873
     25          1           0        3.820130   -1.286826    0.161463
     26          1           0        2.601696   -0.603607   -1.804804
 ---------------------------------------------------------------------
 Rotational constants (GHZ):           1.3495118           0.4194667           0.3727642
 Standard basis: 6-31G(d) (6D, 7F)
 There are   221 symmetry adapted cartesian basis functions of A   symmetry.
 There are   221 symmetry adapted basis functions of A   symmetry.
   221 basis functions,   416 primitive gaussians,   221 cartesian basis functions
    49 alpha electrons       49 beta electrons
       nuclear repulsion energy       806.0677071653 Hartrees.
 NAtoms=   26 NActive=   26 NUniq=   26 SFac= 1.00D+00 NAtFMM=   60 NAOKFM=F Big=F
 Integral buffers will be    131072 words long.
 Raffenetti 2 integral format.
 Two-electron integral symmetry is turned on.
 Nuclear repulsion after empirical dispersion term =      806.0225866293 Hartrees.
 One-electron integrals computed using PRISM.
 NBasis=   221 RedAO= T EigKep=  1.05D-03  NBF=   221
 NBsUse=   221 1.00D-06 EigRej= -1.00D+00 NBFU=   221
 ExpMin= 1.61D-01 ExpMax= 5.48D+03 ExpMxC= 8.25D+02 IAcc=3 IRadAn=         5 AccDes= 0.00D+00
 Harris functional with IExCor=  402 and IRadAn=       5 diagonalized for initial guess.
 HarFok:  IExCor=  402 AccDes= 0.00D+00 IRadAn=         5 IDoV= 1 UseB2=F ITyADJ=14
 ICtDFT=  3500011 ScaDFX=  1.000000  1.000000  1.000000  1.000000
 FoFCou: FMM=F IPFlag=           0 FMFlag=      100000 FMFlg1=           0
         NFxFlg=           0 DoJE=T BraDBF=F KetDBF=T FulRan=T
         wScrn=  0.000000 ICntrl=       500 IOpCl=  0 I1Cent=   200000004 NGrid=           0
         NMat0=    1 NMatS0=      1 NMatT0=    0 NMatD0=    1 NMtDS0=    0 NMtDT0=    0
 Petite list used in FoFCou.
 Keep R1 ints in memory in canonical form, NReq=306369253.
 Requested convergence on RMS density matrix=1.00D-08 within  32 cycles.
 Requested convergence on MAX density matrix=1.00D-06.
 Requested convergence on             energy=1.00D-06.
 No special actions if energy rises.
 Integral accuracy reduced to 1.0D-05 until final iterations.
 Initial convergence to 1.0D-05 achieved.  Increase integral accuracy.
 SCF Done:  E(RB3LYP) =  -627.434595321     A.U. after   15 cycles
            NFock= 15  Conv=0.62D-08     -V/T= 2.0089
 QCSCF skips out because SCF is already converged.

 **********************************************************************

            Population analysis using the SCF density.

 **********************************************************************

 Orbital symmetries:
       Occupied  (A) (A) (A) (A) (A) (A) (A) (A) (A) (A) (A) (A)
                 (A) (A) (A) (A) (A) (A) (A) (A) (A) (A) (A) (A)
                 (A) (A) (A) (A) (A) (A) (A) (A) (A) (A) (A) (A)
                 (A) (A) (A) (A) (A) (A) (A) (A) (A) (A) (A) (A)
                 (A)
       Virtual   (A) (A) (A) (A) (A) (A) (A) (A) (A) (A) (A) (A)
                 (A) (A) (A) (A) (A) (A) (A) (A) (A) (A) (A) (A)
                 (A) (A) (A) (A) (A) (A) (A) (A) (A) (A) (A) (A)
                 (A) (A) (A) (A) (A) (A) (A) (A) (A) (A) (A) (A)
                 (A) (A) (A) (A) (A) (A) (A) (A) (A) (A) (A) (A)
                 (A) (A) (A) (A) (A) (A) (A) (A) (A) (A) (A) (A)
                 (A) (A) (A) (A) (A) (A) (A) (A) (A) (A) (A) (A)
                 (A) (A) (A) (A) (A) (A) (A) (A) (A) (A) (A) (A)
                 (A) (A) (A) (A) (A) (A) (A) (A) (A) (A) (A) (A)
                 (A) (A) (A) (A) (A) (A) (A) (A) (A) (A) (A) (A)
                 (A) (A) (A) (A) (A) (A) (A) (A) (A) (A) (A) (A)
                 (A) (A) (A) (A) (A) (A) (A) (A) (A) (A) (A) (A)
                 (A) (A) (A) (A) (A) (A) (A) (A) (A) (A) (A) (A)
                 (A) (A) (A) (A) (A) (A) (A) (A) (A) (A) (A) (A)
                 (A) (A) (A) (A)
 The electronic state is 1-A.
 Alpha  occ. eigenvalues --  -19.13321 -19.09400 -14.39822 -14.35997 -14.33558
 Alpha  occ. eigenvalues --  -10.29501 -10.28015 -10.26645 -10.23831 -10.23516
 Alpha  occ. eigenvalues --  -10.21402 -10.18830 -10.17350  -1.04301  -1.00942
 Alpha  occ. eigenvalues --   -0.99115  -0.95262  -0.89774  -0.80505  -0.77103
 Alpha  occ. eigenvalues --   -0.73772  -0.68296  -0.65970  -0.64344  -0.61142
 Alpha  occ. eigenvalues --   -0.56946  -0.55497  -0.51439  -0.49285  -0.47887
 Alpha  occ. eigenvalues --   -0.46085  -0.45148  -0.44718  -0.43027  -0.42511
 Alpha  occ. eigenvalues --   -0.42442  -0.42049  -0.40594  -0.39342  -0.39163
 Alpha  occ. eigenvalues --   -0.37530  -0.36415  -0.33173  -0.32086  -0.28856
 Alpha  occ. eigenvalues --   -0.26582  -0.25792  -0.24041  -0.21365
 Alpha virt. eigenvalues --   -0.02799   0.01522   0.06319   0.07874   0.09441
 Alpha virt. eigenvalues --    0.10381   0.11336   0.12776   0.13280   0.14085
 Alpha virt. eigenvalues --    0.14589   0.15181   0.16132   0.17199   0.18165
 Alpha virt. eigenvalues --    0.19212   0.20235   0.21767   0.23083   0.23479
 Alpha virt. eigenvalues --    0.23750   0.26133   0.28701   0.29229   0.32080
 Alpha virt. eigenvalues --    0.33698   0.39571   0.43738   0.47652   0.49389
 Alpha virt. eigenvalues --    0.50444   0.51711   0.52033   0.53295   0.53623
 Alpha virt. eigenvalues --    0.54227   0.55419   0.57100   0.59975   0.61290
 Alpha virt. eigenvalues --    0.62779   0.63420   0.63822   0.64268   0.66110
 Alpha virt. eigenvalues --    0.67363   0.68944   0.70028   0.71949   0.73253
 Alpha virt. eigenvalues --    0.74986   0.76705   0.79290   0.79885   0.80435
 Alpha virt. eigenvalues --    0.84168   0.84401   0.85369   0.85583   0.86517
 Alpha virt. eigenvalues --    0.87082   0.87900   0.88431   0.89143   0.90359
 Alpha virt. eigenvalues --    0.90953   0.91960   0.93000   0.93814   0.94292
 Alpha virt. eigenvalues --    0.95052   0.97619   1.00968   1.01616   1.04959
 Alpha virt. eigenvalues --    1.06221   1.07477   1.08052   1.13579   1.15653
 Alpha virt. eigenvalues --    1.18082   1.20692   1.23026   1.26314   1.30624
 Alpha virt. eigenvalues --    1.32419   1.34462   1.34566   1.38231   1.40535
 Alpha virt. eigenvalues --    1.41113   1.42997   1.45663   1.47982   1.50616
 Alpha virt. eigenvalues --    1.52946   1.56746   1.57469   1.61012   1.65605
 Alpha virt. eigenvalues --    1.67587   1.68201   1.71647   1.74902   1.77252
 Alpha virt. eigenvalues --    1.82175   1.83154   1.84314   1.85522   1.85837
 Alpha virt. eigenvalues --    1.87131   1.88855   1.89969   1.92549   1.93296
 Alpha virt. eigenvalues --    1.94494   1.97468   2.00231   2.02212   2.03591
 Alpha virt. eigenvalues --    2.04754   2.08487   2.09733   2.12604   2.15058
 Alpha virt. eigenvalues --    2.16287   2.17287   2.21348   2.23323   2.25752
 Alpha virt. eigenvalues --    2.27431   2.29445   2.31313   2.32515   2.33711
 Alpha virt. eigenvalues --    2.36869   2.37235   2.41194   2.46037   2.47323
 Alpha virt. eigenvalues --    2.48573   2.52485   2.57490   2.58678   2.64405
 Alpha virt. eigenvalues --    2.65821   2.67156   2.69024   2.71468   2.74913
 Alpha virt. eigenvalues --    2.79156   2.82139   2.85616   2.91924   2.96809
 Alpha virt. eigenvalues --    3.00686   3.08262   3.26626   3.47758   3.80402
 Alpha virt. eigenvalues --    3.96070   4.02095   4.08938   4.15028   4.19105
 Alpha virt. eigenvalues --    4.23197   4.28824   4.31551   4.41363   4.53091
 Alpha virt. eigenvalues --    4.57140   4.67921
          Condensed to atoms (all electrons):
               1          2          3          4          5          6
     1  C    5.220450   0.368244  -0.079882   0.002710   0.000610   0.001935
     2  C    0.368244   4.436731   0.535484  -0.046366  -0.019585  -0.021316
     3  N   -0.079882   0.535484   6.892781   0.414728  -0.080461  -0.022142
     4  C    0.002710  -0.046366   0.414728   4.521418   0.411444   0.005056
     5  C    0.000610  -0.019585  -0.080461   0.411444   5.447116   0.420047
     6  C    0.001935  -0.021316  -0.022142   0.005056   0.420047   4.257999
     7  O   -0.000140   0.002840   0.000319   0.006075  -0.082086   0.588457
     8  N   -0.076094   0.304944  -0.058280  -0.014847  -0.107857   0.196483
     9  N   -0.000181   0.003310  -0.076734   0.278006  -0.083747   0.001198
    10  C    0.000002  -0.000148   0.002951  -0.028582  -0.001194   0.000194
    11  C   -0.000000   0.000030  -0.000024   0.000655  -0.001506  -0.000040
    12  C   -0.000000   0.000002  -0.000128   0.003590   0.000174  -0.000005
    13  O    0.000000  -0.000000  -0.000004   0.000577  -0.000029  -0.000000
    14  H    0.358058  -0.031880   0.003708  -0.000098  -0.000048   0.000516
    15  H    0.363304  -0.022284  -0.001797   0.000087   0.000046  -0.000075
    16  H    0.363629  -0.021746   0.000749   0.000178   0.000053  -0.000053
    17  H    0.000023   0.000425   0.004932  -0.041170   0.348694  -0.027504
    18  H   -0.004584  -0.020204   0.003886  -0.000002   0.009181  -0.003867
    19  H   -0.000077   0.000264   0.009021  -0.024845   0.008393   0.000032
    20  H    0.000000   0.000004  -0.000056  -0.007981   0.003342   0.000114
    21  H    0.000000  -0.000002  -0.000033  -0.000406   0.000005   0.000003
    22  H    0.000000  -0.000000   0.000001  -0.000071  -0.000102  -0.000000
    23  H   -0.000000  -0.000007  -0.000210   0.003912   0.003075  -0.000035
    24  H    0.000000  -0.000000   0.000001  -0.000037   0.000012   0.000000
    25  H   -0.000000  -0.000000   0.000003  -0.000400  -0.000031   0.000000
    26  H    0.000000  -0.000002  -0.000026   0.000713  -0.000285  -0.000002
               7          8          9         10         11         12
     1  C   -0.000140  -0.076094  -0.000181   0.000002  -0.000000  -0.000000
     2  C    0.002840   0.304944   0.003310  -0.000148   0.000030   0.000002
     3  N    0.000319  -0.058280  -0.076734   0.002951  -0.000024  -0.000128
     4  C    0.006075  -0.014847   0.278006  -0.028582   0.000655   0.003590
     5  C   -0.082086  -0.107857  -0.083747  -0.001194  -0.001506   0.000174
     6  C    0.588457   0.196483   0.001198   0.000194  -0.000040  -0.000005
     7  O    8.116953  -0.093083  -0.000046  -0.000002   0.000001  -0.000000
     8  N   -0.093083   7.218736   0.000219  -0.000002  -0.000003   0.000000
     9  N   -0.000046   0.000219   7.150520   0.272057  -0.071091  -0.044832
    10  C   -0.000002  -0.000002   0.272057   4.908413   0.338416   0.366117
    11  C    0.000001  -0.000003  -0.071091   0.338416   5.177631  -0.054714
    12  C   -0.000000   0.000000  -0.044832   0.366117  -0.054714   4.833320
    13  O    0.000000  -0.000000  -0.011418  -0.037607   0.003405   0.273723
    14  H   -0.000006   0.001289   0.000000  -0.000000  -0.000000   0.000000
    15  H    0.000001   0.000856   0.000001  -0.000000   0.000000  -0.000000
    16  H    0.000001   0.002461  -0.000010   0.000000  -0.000000   0.000000
    17  H   -0.000404   0.005347  -0.006451   0.001762  -0.000083  -0.000029
    18  H    0.010023   0.267486   0.000027  -0.000000   0.000000   0.000000
    19  H    0.000001   0.000087   0.280977  -0.033359  -0.002154  -0.003829
    20  H   -0.000001  -0.000001  -0.044404   0.374143  -0.041977  -0.039542
    21  H    0.000000  -0.000000  -0.003950  -0.031721   0.371201  -0.006427
    22  H    0.000000   0.000000   0.005652  -0.030165   0.360988  -0.000837
    23  H   -0.000003  -0.000000  -0.004551  -0.021005   0.367088   0.003882
    24  H    0.000000  -0.000000   0.004712  -0.028127  -0.000674   0.374704
    25  H    0.000000  -0.000000  -0.011356  -0.036804  -0.000282   0.348490
    26  H    0.000000   0.000000   0.035063  -0.017870   0.001155  -0.041840
              13         14         15         16         17         18
     1  C    0.000000   0.358058   0.363304   0.363629   0.000023  -0.004584
     2  C   -0.000000  -0.031880  -0.022284  -0.021746   0.000425  -0.020204
     3  N   -0.000004   0.003708  -0.001797   0.000749   0.004932   0.003886
     4  C    0.000577  -0.000098   0.000087   0.000178  -0.041170  -0.000002
     5  C   -0.000029  -0.000048   0.000046   0.000053   0.348694   0.009181
     6  C   -0.000000   0.000516  -0.000075  -0.000053  -0.027504  -0.003867
     7  O    0.000000  -0.000006   0.000001   0.000001  -0.000404   0.010023
     8  N   -0.000000   0.001289   0.000856   0.002461   0.005347   0.267486
     9  N   -0.011418   0.000000   0.000001  -0.000010  -0.006451   0.000027
    10  C   -0.037607  -0.000000  -0.000000   0.000000   0.001762  -0.000000
    11  C    0.003405  -0.000000   0.000000  -0.000000  -0.000083   0.000000
    12  C    0.273723   0.000000  -0.000000   0.000000  -0.000029   0.000000
    13  O    8.247275   0.000000   0.000000  -0.000000  -0.000017   0.000000
    14  H    0.000000   0.558710  -0.025581  -0.024213  -0.000001   0.003165
    15  H    0.000000  -0.025581   0.510903  -0.021086  -0.000000   0.000159
    16  H   -0.000000  -0.024213  -0.021086   0.505244  -0.000001   0.000021
    17  H   -0.000017  -0.000001  -0.000000  -0.000001   0.567387  -0.000122
    18  H    0.000000   0.003165   0.000159   0.000021  -0.000122   0.392685
    19  H    0.000123   0.000001   0.000008   0.000010  -0.000236  -0.000003
    20  H    0.004752  -0.000000   0.000000  -0.000000   0.003447   0.000000
    21  H   -0.000009   0.000000  -0.000000  -0.000000  -0.000001   0.000000
    22  H    0.000022   0.000000   0.000000  -0.000000   0.000004  -0.000000
    23  H   -0.000072   0.000000  -0.000000   0.000000   0.000117  -0.000000
    24  H   -0.035607  -0.000000  -0.000000   0.000000   0.000011  -0.000000
    25  H   -0.046109  -0.000000   0.000000  -0.000000  -0.000004   0.000000
    26  H    0.236355  -0.000000  -0.000000   0.000000   0.000061  -0.000000
              19         20         21         22         23         24
     1  C   -0.000077   0.000000   0.000000   0.000000  -0.000000   0.000000
     2  C    0.000264   0.000004  -0.000002  -0.000000  -0.000007  -0.000000
     3  N    0.009021  -0.000056  -0.000033   0.000001  -0.000210   0.000001
     4  C   -0.024845  -0.007981  -0.000406  -0.000071   0.003912  -0.000037
     5  C    0.008393   0.003342   0.000005  -0.000102   0.003075   0.000012
     6  C    0.000032   0.000114   0.000003  -0.000000  -0.000035   0.000000
     7  O    0.000001  -0.000001   0.000000   0.000000  -0.000003   0.000000
     8  N    0.000087  -0.000001  -0.000000   0.000000  -0.000000  -0.000000
     9  N    0.280977  -0.044404  -0.003950   0.005652  -0.004551   0.004712
    10  C   -0.033359   0.374143  -0.031721  -0.030165  -0.021005  -0.028127
    11  C   -0.002154  -0.041977   0.371201   0.360988   0.367088  -0.000674
    12  C   -0.003829  -0.039542  -0.006427  -0.000837   0.003882   0.374704
    13  O    0.000123   0.004752  -0.000009   0.000022  -0.000072  -0.035607
    14  H    0.000001  -0.000000   0.000000   0.000000   0.000000  -0.000000
    15  H    0.000008   0.000000  -0.000000   0.000000  -0.000000  -0.000000
    16  H    0.000010  -0.000000  -0.000000  -0.000000   0.000000   0.000000
    17  H   -0.000236   0.003447  -0.000001   0.000004   0.000117   0.000011
    18  H   -0.000003   0.000000   0.000000  -0.000000  -0.000000  -0.000000
    19  H    0.430196   0.005270   0.004312  -0.000065  -0.000401  -0.000090
    20  H    0.005270   0.576842   0.005253  -0.001381  -0.004148  -0.006772
    21  H    0.004312   0.005253   0.571934  -0.028133  -0.030915  -0.000370
    22  H   -0.000065  -0.001381  -0.028133   0.568426  -0.027743   0.002740
    23  H   -0.000401  -0.004148  -0.030915  -0.027743   0.545748  -0.000119
    24  H   -0.000090  -0.006772  -0.000370   0.002740  -0.000119   0.580663
    25  H    0.004901   0.006746   0.005540  -0.000319  -0.000171  -0.049591
    26  H   -0.000416  -0.001346   0.000001  -0.000041  -0.000006   0.006738
              25         26
     1  C   -0.000000   0.000000
     2  C   -0.000000  -0.000002
     3  N    0.000003  -0.000026
     4  C   -0.000400   0.000713
     5  C   -0.000031  -0.000285
     6  C    0.000000  -0.000002
     7  O    0.000000   0.000000
     8  N   -0.000000   0.000000
     9  N   -0.011356   0.035063
    10  C   -0.036804  -0.017870
    11  C   -0.000282   0.001155
    12  C    0.348490  -0.041840
    13  O   -0.046109   0.236355
    14  H   -0.000000  -0.000000
    15  H    0.000000  -0.000000
    16  H   -0.000000   0.000000
    17  H   -0.000004   0.000061
    18  H    0.000000  -0.000000
    19  H    0.004901  -0.000416
    20  H    0.006746  -0.001346
    21  H    0.005540   0.000001
    22  H   -0.000319  -0.000041
    23  H   -0.000171  -0.000006
    24  H   -0.049591   0.006738
    25  H    0.661244  -0.000689
    26  H   -0.000689   0.381117
 Mulliken charges:
               1
     1  C   -0.518006
     2  C    0.531265
     3  N   -0.548787
     4  C    0.515654
     5  C   -0.275262
     6  C    0.603005
     7  O   -0.548901
     8  N   -0.647740
     9  N   -0.672969
    10  C    0.002528
    11  C   -0.448020
    12  C   -0.011819
    13  O   -0.635359
    14  H    0.156379
    15  H    0.195458
    16  H    0.194764
    17  H    0.143812
    18  H    0.342149
    19  H    0.321879
    20  H    0.167696
    21  H    0.143719
    22  H    0.151025
    23  H    0.165567
    24  H    0.151806
    25  H    0.118835
    26  H    0.401321
 Sum of Mulliken charges =  -0.00000
 Mulliken charges with hydrogens summed into heavy atoms:
               1
     1  C    0.028596
     2  C    0.531265
     3  N   -0.548787
     4  C    0.515654
     5  C   -0.131450
     6  C    0.603005
     7  O   -0.548901
     8  N   -0.305591
     9  N   -0.351090
    10  C    0.170224
    11  C    0.012290
    12  C    0.258821
    13  O   -0.234038
 Electronic spatial extent (au):  <R**2>=           3097.7002
 Charge=              0.0000 electrons
 Dipole moment (field-independent basis, Debye):
    X=             -1.4918    Y=             -3.8570    Z=              2.3882  Tot=              4.7755
 Quadrupole moment (field-independent basis, Debye-Ang):
   XX=            -69.9498   YY=            -85.2027   ZZ=            -79.4629
   XY=             13.2068   XZ=              7.5778   YZ=              1.0690
 Traceless Quadrupole moment (field-independent basis, Debye-Ang):
   XX=              8.2553   YY=             -6.9976   ZZ=             -1.2577
   XY=             13.2068   XZ=              7.5778   YZ=              1.0690
 Octapole moment (field-independent basis, Debye-Ang**2):
  XXX=            -75.6315  YYY=            -32.9517  ZZZ=             -3.7018  XYY=             28.7082
  XXY=            -27.6118  XXZ=             35.3908  XZZ=            -13.4595  YZZ=             -1.3176
  YYZ=              2.1501  XYZ=             -4.5672
 Hexadecapole moment (field-independent basis, Debye-Ang**3):
 XXXX=          -2702.8915 YYYY=           -810.8630 ZZZZ=           -378.7156 XXXY=             95.5823
 XXXZ=            116.1260 YYYX=             77.8593 YYYZ=              7.1632 ZZZX=              2.9199
 ZZZY=              2.6900 XXYY=           -638.3266 XXZZ=           -599.9368 YYZZ=           -180.7471
 XXYZ=              1.9583 YYXZ=            -13.2151 ZZXY=             -1.1813
 N-N= 8.060225866293D+02 E-N=-3.073549283802D+03  KE= 6.218787798271D+02
 Calling FoFJK, ICntrl=      2127 FMM=F ISym2X=0 I1Cent= 0 IOpClX= 0 NMat=1 NMatS=1 NMatT=0.
 ***** Axes restored to original set *****
 -------------------------------------------------------------------
 Center     Atomic                   Forces (Hartrees/Bohr)
 Number     Number              X              Y              Z
 -------------------------------------------------------------------
      1        6          -0.000597595    0.002067484   -0.000586295
      2        6          -0.008186249   -0.007308383   -0.001048882
      3        7          -0.013746225    0.009256775    0.002750615
      4        6           0.005604624    0.015101288    0.000521628
      5        6           0.014436284   -0.030378085   -0.007976266
      6        6           0.050288632    0.043076990    0.004619900
      7        8           0.001424515   -0.015979998   -0.003442107
      8        7          -0.024092677   -0.005915535    0.001262705
      9        7          -0.022570940   -0.002559008    0.009721485
     10        6          -0.005660162    0.004724625   -0.007662325
     11        6           0.003752830   -0.000137165   -0.007552274
     12        6           0.000979630   -0.015620282    0.017651221
     13        8           0.003393615   -0.000267848   -0.002755017
     14        1          -0.000745337   -0.000521300    0.000283035
     15        1          -0.002385452   -0.000782603   -0.000146486
     16        1          -0.000560839   -0.000574324    0.001936231
     17        1           0.001473177    0.000032320   -0.000847105
     18        1          -0.001106209   -0.003640426   -0.000992882
     19        1           0.003248851    0.005026876    0.000714466
     20        1          -0.002752382   -0.002359381    0.001959587
     21        1          -0.000499124    0.000699456    0.001435898
     22        1           0.000268314    0.000906227   -0.000863179
     23        1           0.000315376   -0.000322011    0.000679763
     24        1           0.000488339   -0.001520989   -0.000210344
     25        1          -0.003962977    0.001873578   -0.008695164
     26        1           0.001191982    0.005121720   -0.000758208
 -------------------------------------------------------------------
 Cartesian Forces:  Max     0.050288632 RMS     0.010585401

 GradGradGradGradGradGradGradGradGradGradGradGradGradGradGradGradGradGrad
 Berny optimization.
 FormGI is forming the generalized inverse of G from B-inverse, IUseBI=4.
 Internal  Forces:  Max     0.040652715 RMS     0.006702036
 Search for a local minimum.
 Step number   1 out of a maximum of  137
 All quantities printed in internal units (Hartrees-Bohrs-Radians)
 Mixed Optimization -- RFO/linear search
 Second derivative matrix not updated -- first step.
 ITU=  0
     Eigenvalues ---    0.00235   0.00457   0.00744   0.00808   0.01316
     Eigenvalues ---    0.01612   0.01739   0.01862   0.01906   0.01919
     Eigenvalues ---    0.02097   0.02227   0.02297   0.02528   0.02620
     Eigenvalues ---    0.04271   0.04694   0.05034   0.05519   0.05549
     Eigenvalues ---    0.05595   0.05835   0.07263   0.07564   0.11503
     Eigenvalues ---    0.13757   0.14448   0.15999   0.16000   0.16000
     Eigenvalues ---    0.16000   0.16000   0.16000   0.16000   0.16000
     Eigenvalues ---    0.16000   0.16383   0.17601   0.22007   0.22676
     Eigenvalues ---    0.23450   0.23544   0.24998   0.24999   0.24999
     Eigenvalues ---    0.25000   0.28506   0.30045   0.32203   0.34163
     Eigenvalues ---    0.34163   0.34196   0.34224   0.34245   0.34323
     Eigenvalues ---    0.34370   0.34372   0.34446   0.35363   0.36127
     Eigenvalues ---    0.36128   0.41218   0.44256   0.46163   0.47209
     Eigenvalues ---    0.48409   0.50592   0.51454   0.52556   0.55373
     Eigenvalues ---    0.67195   0.93118
 RFO step:  Lambda=-1.70492258D-02 EMin= 2.34960141D-03
 Linear search not attempted -- first point.
 Iteration  1 RMS(Cart)=  0.04539446 RMS(Int)=  0.00099667
 Iteration  2 RMS(Cart)=  0.00205671 RMS(Int)=  0.00032340
 Iteration  3 RMS(Cart)=  0.00000162 RMS(Int)=  0.00032340
 Iteration  4 RMS(Cart)=  0.00000000 RMS(Int)=  0.00032340
 Variable       Old X    -DE/DX   Delta X   Delta X   Delta X     New X
                                 (Linear)    (Quad)   (Total)
    R1        2.83774   0.00345   0.00000   0.01017   0.01017   2.84791
    R2        2.06583   0.00024   0.00000   0.00065   0.00065   2.06648
    R3        2.06711   0.00076   0.00000   0.00212   0.00212   2.06923
    R4        2.06708  -0.00093   0.00000  -0.00256  -0.00256   2.06451
    R5        2.44181   0.00343   0.00000   0.00427   0.00415   2.44595
    R6        2.57170   0.01008   0.00000   0.01815   0.01805   2.58975
    R7        2.59584   0.00743   0.00000   0.01388   0.01386   2.60970
    R8        2.53845   0.03363   0.00000   0.05808   0.05817   2.59662
    R9        2.61506  -0.00151   0.00000  -0.00301  -0.00301   2.61204
   R10        2.77122  -0.01347   0.00000  -0.03453  -0.03441   2.73681
   R11        2.03882   0.00128   0.00000   0.00337   0.00337   2.04219
   R12        2.31528   0.00932   0.00000   0.00982   0.00982   2.32511
   R13        2.56644   0.04065   0.00000   0.07422   0.07423   2.64067
   R14        1.90648   0.00375   0.00000   0.00783   0.00783   1.91430
   R15        2.77183  -0.00482   0.00000  -0.01273  -0.01273   2.75910
   R16        1.92850  -0.00201   0.00000  -0.00438  -0.00438   1.92412
   R17        2.87874   0.00571   0.00000   0.01798   0.01798   2.89673
   R18        2.91044  -0.00528   0.00000  -0.01748  -0.01748   2.89297
   R19        2.07055  -0.00171   0.00000  -0.00476  -0.00476   2.06579
   R20        2.07055   0.00045   0.00000   0.00124   0.00124   2.07180
   R21        2.06918   0.00108   0.00000   0.00300   0.00300   2.07218
   R22        2.06953  -0.00011   0.00000  -0.00029  -0.00029   2.06924
   R23        2.69931  -0.00409   0.00000  -0.00952  -0.00952   2.68980
   R24        2.06789  -0.00080   0.00000  -0.00223  -0.00223   2.06566
   R25        2.07001   0.00514   0.00000   0.01432   0.01432   2.08432
   R26        1.85126  -0.00524   0.00000  -0.00985  -0.00985   1.84141
    A1        1.94780   0.00079   0.00000   0.00595   0.00590   1.95371
    A2        1.90180   0.00274   0.00000   0.01464   0.01460   1.91640
    A3        1.91076   0.00084   0.00000   0.00414   0.00413   1.91488
    A4        1.90241  -0.00154   0.00000  -0.00742  -0.00748   1.89493
    A5        1.90240  -0.00047   0.00000  -0.00102  -0.00104   1.90136
    A6        1.89803  -0.00247   0.00000  -0.01703  -0.01704   1.88099
    A7        2.09863  -0.00219   0.00000  -0.00682  -0.00672   2.09191
    A8        2.02761   0.00560   0.00000   0.02235   0.02245   2.05006
    A9        2.15688  -0.00340   0.00000  -0.01555  -0.01576   2.14113
   A10        2.07232  -0.00396   0.00000  -0.01936  -0.01957   2.05275
   A11        2.12276   0.00724   0.00000   0.02621   0.02628   2.14904
   A12        2.02415  -0.01949   0.00000  -0.07254  -0.07258   1.95157
   A13        2.13618   0.01224   0.00000   0.04627   0.04623   2.18241
   A14        2.08285   0.00145   0.00000   0.00769   0.00792   2.09076
   A15        2.16841   0.00016   0.00000   0.00120   0.00108   2.16949
   A16        2.03186  -0.00161   0.00000  -0.00885  -0.00897   2.02290
   A17        2.12592   0.02164   0.00000   0.08024   0.08016   2.20608
   A18        2.01281  -0.01201   0.00000  -0.04338  -0.04322   1.96958
   A19        2.14445  -0.00963   0.00000  -0.03685  -0.03693   2.10752
   A20        2.11870   0.01069   0.00000   0.04442   0.04437   2.16306
   A21        2.13214  -0.00644   0.00000  -0.02840  -0.02837   2.10377
   A22        2.03235  -0.00425   0.00000  -0.01602  -0.01599   2.01635
   A23        2.22149  -0.01620   0.00000  -0.06532  -0.06520   2.15629
   A24        1.87988   0.01167   0.00000   0.05914   0.05905   1.93893
   A25        1.99037   0.00163   0.00000  -0.00153  -0.00112   1.98925
   A26        1.92970   0.00444   0.00000   0.03523   0.03537   1.96507
   A27        1.88519  -0.00498   0.00000  -0.02123  -0.02241   1.86277
   A28        1.91447  -0.00189   0.00000  -0.03764  -0.03796   1.87652
   A29        1.93665   0.00359   0.00000   0.03182   0.03176   1.96841
   A30        1.91961  -0.00157   0.00000  -0.00155  -0.00114   1.91847
   A31        1.87715   0.00020   0.00000  -0.00894  -0.00963   1.86752
   A32        1.94346  -0.00204   0.00000  -0.01257  -0.01258   1.93088
   A33        1.93346   0.00144   0.00000   0.00838   0.00840   1.94186
   A34        1.93841  -0.00086   0.00000  -0.00411  -0.00413   1.93429
   A35        1.88689   0.00008   0.00000  -0.00103  -0.00101   1.88588
   A36        1.87653   0.00145   0.00000   0.00770   0.00767   1.88419
   A37        1.88264   0.00001   0.00000   0.00208   0.00208   1.88472
   A38        1.91435   0.00685   0.00000   0.03487   0.03480   1.94915
   A39        1.94014  -0.00264   0.00000  -0.02906  -0.02949   1.91064
   A40        1.94375  -0.00660   0.00000  -0.03451  -0.03598   1.90777
   A41        1.88969  -0.00347   0.00000  -0.02201  -0.02151   1.86819
   A42        1.88030   0.00457   0.00000   0.06110   0.06130   1.94160
   A43        1.89381   0.00150   0.00000  -0.00781  -0.00891   1.88490
   A44        1.83232  -0.00122   0.00000  -0.00689  -0.00689   1.82543
    D1        2.93908  -0.00011   0.00000  -0.00594  -0.00595   2.93313
    D2       -0.21386  -0.00020   0.00000  -0.00859  -0.00861  -0.22247
    D3       -1.24238   0.00029   0.00000  -0.00176  -0.00174  -1.24412
    D4        1.88785   0.00019   0.00000  -0.00441  -0.00439   1.88347
    D5        0.83142  -0.00060   0.00000  -0.01130  -0.01130   0.82011
    D6       -2.32153  -0.00069   0.00000  -0.01394  -0.01395  -2.33549
    D7        3.12942  -0.00033   0.00000  -0.00816  -0.00807   3.12135
    D8        0.00006  -0.00028   0.00000  -0.00558  -0.00554  -0.00548
    D9       -3.13352   0.00027   0.00000   0.00685   0.00692  -3.12660
   D10        0.01004   0.00026   0.00000   0.00614   0.00616   0.01621
   D11       -0.00370   0.00018   0.00000   0.00419   0.00426   0.00056
   D12        3.13986   0.00017   0.00000   0.00348   0.00351  -3.13982
   D13       -0.00237   0.00028   0.00000   0.00526   0.00530   0.00293
   D14       -3.12993   0.00039   0.00000   0.01020   0.01003  -3.11991
   D15        0.00776  -0.00008   0.00000  -0.00330  -0.00334   0.00442
   D16       -3.12067  -0.00021   0.00000  -0.00681  -0.00684  -3.12751
   D17        3.13441  -0.00046   0.00000  -0.00953  -0.00967   3.12474
   D18        0.00598  -0.00058   0.00000  -0.01304  -0.01317  -0.00719
   D19       -2.66560   0.00002   0.00000  -0.02145  -0.02099  -2.68659
   D20       -0.19926  -0.00164   0.00000  -0.02424  -0.02457  -0.22382
   D21        0.49015   0.00018   0.00000  -0.01628  -0.01596   0.47419
   D22        2.95649  -0.00149   0.00000  -0.01907  -0.01953   2.93696
   D23        3.12830   0.00008   0.00000   0.00247   0.00245   3.13075
   D24       -0.01061   0.00011   0.00000   0.00219   0.00208  -0.00853
   D25       -0.02544   0.00021   0.00000   0.00577   0.00573  -0.01972
   D26        3.11883   0.00024   0.00000   0.00549   0.00536   3.12419
   D27        0.00861  -0.00004   0.00000  -0.00219  -0.00218   0.00642
   D28       -3.13485  -0.00003   0.00000  -0.00154  -0.00148  -3.13633
   D29       -3.13027  -0.00007   0.00000  -0.00267  -0.00273  -3.13300
   D30        0.00946  -0.00006   0.00000  -0.00202  -0.00203   0.00743
   D31        1.33557  -0.00094   0.00000  -0.00647  -0.00625   1.32931
   D32       -2.82554   0.00301   0.00000   0.04068   0.04046  -2.78508
   D33       -0.78440  -0.00061   0.00000  -0.00261  -0.00192  -0.78632
   D34       -1.09577  -0.00173   0.00000  -0.02030  -0.02054  -1.11631
   D35        1.02631   0.00222   0.00000   0.02685   0.02618   1.05249
   D36        3.06745  -0.00140   0.00000  -0.01644  -0.01621   3.05124
   D37        1.01731   0.00002   0.00000   0.02031   0.02064   1.03794
   D38        3.11786  -0.00028   0.00000   0.01626   0.01657   3.13443
   D39       -1.07348   0.00012   0.00000   0.02172   0.02202  -1.05145
   D40       -1.07410   0.00101   0.00000   0.00304   0.00271  -1.07140
   D41        1.02645   0.00071   0.00000  -0.00100  -0.00136   1.02509
   D42        3.11830   0.00111   0.00000   0.00446   0.00409   3.12239
   D43        3.13423  -0.00049   0.00000  -0.00481  -0.00476   3.12947
   D44       -1.04840  -0.00078   0.00000  -0.00886  -0.00883  -1.05723
   D45        1.04345  -0.00039   0.00000  -0.00340  -0.00338   1.04008
   D46        0.99279  -0.00057   0.00000  -0.00270  -0.00261   0.99018
   D47        3.08205  -0.00210   0.00000  -0.02582  -0.02610   3.05595
   D48       -1.08704  -0.00655   0.00000  -0.07962  -0.07886  -1.16590
   D49        3.11057   0.00389   0.00000   0.04660   0.04636  -3.12626
   D50       -1.08337   0.00236   0.00000   0.02347   0.02287  -1.06050
   D51        1.03073  -0.00209   0.00000  -0.03032  -0.02989   1.00084
   D52       -1.07237   0.00422   0.00000   0.05788   0.05772  -1.01465
   D53        1.01688   0.00269   0.00000   0.03475   0.03423   1.05111
   D54        3.13098  -0.00176   0.00000  -0.01905  -0.01853   3.11245
   D55       -0.66347  -0.00039   0.00000  -0.02701  -0.02800  -0.69147
   D56       -2.78331   0.00083   0.00000   0.00107   0.00090  -2.78242
   D57        1.45498  -0.00155   0.00000  -0.01079  -0.00962   1.44536
         Item               Value     Threshold  Converged?
 Maximum Force            0.040653     0.000450     NO 
 RMS     Force            0.006702     0.000300     NO 
 Maximum Displacement     0.136185     0.001800     NO 
 RMS     Displacement     0.046113     0.001200     NO 
 Predicted change in Energy=-9.170905D-03
 GradGradGradGradGradGradGradGradGradGradGradGradGradGradGradGradGradGrad

                          Input orientation:                          
 ---------------------------------------------------------------------
 Center     Atomic      Atomic             Coordinates (Angstroms)
 Number     Number       Type             X           Y           Z
 ---------------------------------------------------------------------
      1          6           0       -2.369046   -1.244543    0.045736
      2          6           0       -1.105655   -0.423060    0.059860
      3          7           0       -1.161651    0.840474    0.334942
      4          6           0        0.026689    1.543617    0.358994
      5          6           0        1.246711    0.965479    0.103297
      6          6           0        1.321886   -0.445414   -0.214792
      7          8           0        2.342429   -1.082190   -0.473406
      8          7           0        0.072004   -1.070270   -0.209104
      9          7           0       -0.168534    2.871099    0.691032
     10          6           0        0.731636    3.945708    0.282786
     11          6           0        0.556098    4.333343   -1.189848
     12          6           0        0.482265    5.116066    1.237622
     13          8           0        0.670987    4.735654    2.596180
     14          1           0       -2.210321   -2.230536   -0.399737
     15          1           0       -2.735562   -1.378973    1.068768
     16          1           0       -3.143120   -0.720439   -0.519653
     17          1           0        2.188729    1.494443    0.129165
     18          1           0        0.078052   -2.060615   -0.422083
     19          1           0       -1.155197    3.118615    0.646716
     20          1           0        1.754596    3.602478    0.458192
     21          1           0       -0.470179    4.667989   -1.381537
     22          1           0        1.236596    5.145949   -1.470949
     23          1           0        0.760526    3.479507   -1.844206
     24          1           0        1.196153    5.916618    1.027026
     25          1           0       -0.533383    5.512619    1.071002
     26          1           0        0.289111    3.841161    2.655925
 ---------------------------------------------------------------------
                    Distance matrix (angstroms):
                    1          2          3          4          5
     1  C    0.000000
     2  C    1.507047   0.000000
     3  N    2.426672   1.294342   0.000000
     4  C    3.689378   2.288996   1.380993   0.000000
     5  C    4.238066   2.731950   2.422704   1.374073   0.000000
     6  C    3.785427   2.443131   2.850206   2.441927   1.448258
     7  O    4.742769   3.550790   4.077823   3.598666   2.392934
     8  N    2.460496   1.370439   2.338553   2.675293   2.371034
     9  N    4.711387   3.482536   2.288345   1.382234   2.445351
    10  C    6.050548   4.744625   3.637271   2.504556   3.029733
    11  C    6.418407   5.191008   4.180404   3.234464   3.673102
    12  C    7.071627   5.881371   4.668831   3.707010   4.370176
    13  O    7.177000   6.016786   4.862530   3.950851   4.556330
    14  H    1.093536   2.167599   3.327245   4.452428   4.734830
    15  H    1.094989   2.142022   2.818091   4.083545   4.720920
    16  H    1.092492   2.139049   2.663268   3.993202   4.743522
    17  H    5.318112   3.812426   3.419805   2.174777   1.080681
    18  H    2.621663   2.077262   3.244421   3.688252   3.286188
    19  H    4.568562   3.590309   2.299386   1.990040   3.271156
    20  H    6.377158   4.954257   4.018502   2.689686   2.708812
    21  H    6.371879   5.329187   4.251389   3.610821   4.342928
    22  H    7.492621   6.232445   5.248804   4.217743   4.467066
    23  H    5.973504   4.726323   3.925296   3.023289   3.217061
    24  H    8.059516   6.813607   5.639633   4.575702   5.036825
    25  H    7.076727   6.048321   4.771315   4.071070   4.978119
    26  H    6.304226   5.183484   4.061502   3.259366   3.962633
                    6          7          8          9         10
     6  C    0.000000
     7  O    1.230395   0.000000
     8  N    1.397384   2.285788   0.000000
     9  N    3.747150   4.825904   4.049999   0.000000
    10  C    4.458468   5.333502   5.083021   1.460053   0.000000
    11  C    4.936971   5.747370   5.513188   2.490172   1.532881
    12  C    5.809004   6.693743   6.366481   2.400453   1.530893
    13  O    5.930321   6.787001   6.475890   2.794808   2.445299
    14  H    3.961988   4.695919   2.567404   5.602263   6.875095
    15  H    4.356827   5.315295   3.100109   4.979501   6.402457
    16  H    4.483844   5.497658   3.248976   4.817994   6.118053
    17  H    2.152387   2.650613   3.342559   2.787036   2.855770
    18  H    2.049138   2.467255   1.013005   5.061782   6.082757
    19  H    4.424979   5.579859   4.448057   1.018200   2.092048
    20  H    4.126206   4.812435   5.011085   2.070642   1.093171
    21  H    5.542534   6.465294   5.881852   2.759592   2.176240
    22  H    5.731365   6.403723   6.449023   3.438531   2.184296
    23  H    4.286621   5.019023   4.883451   2.767805   2.177676
    24  H    6.483315   7.249038   7.183894   3.354169   2.157349
    25  H    6.371299   7.358464   6.733468   2.693533   2.162584
    26  H    5.261404   6.184514   5.690139   2.238585   2.416309
                   11         12         13         14         15
    11  C    0.000000
    12  C    2.551610   0.000000
    13  O    3.809076   1.423380   0.000000
    14  H    7.166718   7.993967   8.112044   0.000000
    15  H    6.968997   7.250410   7.164233   1.776948   0.000000
    16  H    6.298737   7.091983   7.350156   1.779012   1.767160
    17  H    3.530529   4.154137   4.346856   5.788509   5.778236
    18  H    6.457607   7.377178   7.459944   2.294782   3.256332
    19  H    2.788738   2.649577   3.122527   5.551735   4.785810
    20  H    2.164855   2.125391   2.651281   7.104974   6.734179
    21  H    1.096347   2.822749   4.138728   7.182038   6.906642
    22  H    1.096551   2.811808   4.126717   8.212262   8.050019
    23  H    1.094994   3.500488   4.615512   6.596742   6.656792
    24  H    2.798385   1.093101   2.032909   8.945157   8.287688
    25  H    2.772923   1.102977   2.092928   8.058017   7.234890
    26  H    3.886322   1.916840   0.974432   7.242219   6.238390
                   16         17         18         19         20
    16  H    0.000000
    17  H    5.809929   0.000000
    18  H    3.490206   4.171003   0.000000
    19  H    4.477789   3.753350   5.430254   0.000000
    20  H    6.605408   2.177279   5.971290   2.955767   0.000000
    21  H    6.076398   4.407200   6.818741   2.642654   3.077262
    22  H    7.382505   4.098831   7.374069   3.783551   2.524324
    23  H    5.884933   3.142361   5.760309   3.163057   2.510843
    24  H    8.079111   4.620281   8.184516   3.674548   2.447586
    25  H    6.942040   4.943955   7.743192   2.509567   3.042865
    26  H    6.532435   3.937024   6.659553   2.577793   2.652291
                   21         22         23         24         25
    21  H    0.000000
    22  H    1.774689   0.000000
    23  H    1.772340   1.772848   0.000000
    24  H    3.183851   2.614468   3.791207   0.000000
    25  H    2.594676   3.119101   3.782352   1.776638   0.000000
    26  H    4.190616   4.430721   4.539186   2.789903   2.445863
                   26
    26  H    0.000000
 Stoichiometry    C8H13N3O2
 Framework group  C1[X(C8H13N3O2)]
 Deg. of freedom    72
 Full point group                 C1      NOp   1
 Largest Abelian subgroup         C1      NOp   1
 Largest concise Abelian subgroup C1      NOp   1
                         Standard orientation:                         
 ---------------------------------------------------------------------
 Center     Atomic      Atomic             Coordinates (Angstroms)
 Number     Number       Type             X           Y           Z
 ---------------------------------------------------------------------
      1          6           0       -3.210212   -2.136310    0.164268
      2          6           0       -2.230648   -0.996667    0.050876
      3          7           0       -0.958741   -1.235544    0.073536
      4          6           0       -0.102945   -0.159735   -0.058345
      5          6           0       -0.540617    1.134266   -0.206936
      6          6           0       -1.961122    1.415873   -0.224614
      7          8           0       -2.484506    2.523474   -0.339341
      8          7           0       -2.743931    0.266109   -0.090684
      9          7           0        1.222145   -0.552855   -0.045598
     10          6           0        2.317283    0.315349    0.377073
     11          6           0        2.393178    0.468251    1.900420
     12          6           0        3.598771   -0.267016   -0.224820
     13          8           0        3.510370   -0.380090   -1.640945
     14          1           0       -4.229777   -1.782660    0.341021
     15          1           0       -3.200813   -2.726677   -0.757892
     16          1           0       -2.916059   -2.794848    0.984841
     17          1           0        0.111427    1.988075   -0.324076
     18          1           0       -3.745689    0.416167   -0.102651
     19          1           0        1.315126   -1.517692    0.266132
     20          1           0        2.160967    1.292240   -0.087976
     21          1           0        2.537628   -0.507078    2.379841
     22          1           0        3.226456    1.117862    2.193808
     23          1           0        1.469364    0.904552    2.294401
     24          1           0        4.438267    0.398790   -0.008440
     25          1           0        3.809600   -1.243960    0.241750
     26          1           0        2.598150   -0.679879   -1.806773
 ---------------------------------------------------------------------
 Rotational constants (GHZ):           1.3107922           0.4253090           0.3749920
 Standard basis: 6-31G(d) (6D, 7F)
 There are   221 symmetry adapted cartesian basis functions of A   symmetry.
 There are   221 symmetry adapted basis functions of A   symmetry.
   221 basis functions,   416 primitive gaussians,   221 cartesian basis functions
    49 alpha electrons       49 beta electrons
       nuclear repulsion energy       804.6776108209 Hartrees.
 NAtoms=   26 NActive=   26 NUniq=   26 SFac= 1.00D+00 NAtFMM=   60 NAOKFM=F Big=F
 Integral buffers will be    131072 words long.
 Raffenetti 2 integral format.
 Two-electron integral symmetry is turned on.
 Nuclear repulsion after empirical dispersion term =      804.6325059856 Hartrees.
 One-electron integrals computed using PRISM.
 NBasis=   221 RedAO= T EigKep=  1.07D-03  NBF=   221
 NBsUse=   221 1.00D-06 EigRej= -1.00D+00 NBFU=   221
 Initial guess from the checkpoint file:  "JID_3411.chk"
 B after Tr=     0.000000    0.000000   -0.000000
         Rot=    0.999938    0.010330   -0.000173   -0.004141 Ang=   1.28 deg.
 ExpMin= 1.61D-01 ExpMax= 5.48D+03 ExpMxC= 8.25D+02 IAcc=2 IRadAn=         4 AccDes= 0.00D+00
 Harris functional with IExCor=  402 and IRadAn=       4 diagonalized for initial guess.
 HarFok:  IExCor=  402 AccDes= 0.00D+00 IRadAn=         4 IDoV= 1 UseB2=F ITyADJ=14
 ICtDFT=  3500011 ScaDFX=  1.000000  1.000000  1.000000  1.000000
 FoFCou: FMM=F IPFlag=           0 FMFlag=      100000 FMFlg1=           0
         NFxFlg=           0 DoJE=T BraDBF=F KetDBF=T FulRan=T
         wScrn=  0.000000 ICntrl=       500 IOpCl=  0 I1Cent=   200000004 NGrid=           0
         NMat0=    1 NMatS0=      1 NMatT0=    0 NMatD0=    1 NMtDS0=    0 NMtDT0=    0
 Petite list used in FoFCou.
 Keep R1 ints in memory in canonical form, NReq=306369253.
 Requested convergence on RMS density matrix=1.00D-08 within  32 cycles.
 Requested convergence on MAX density matrix=1.00D-06.
 Requested convergence on             energy=1.00D-06.
 No special actions if energy rises.
 Integral accuracy reduced to 1.0D-05 until final iterations.
 Initial convergence to 1.0D-05 achieved.  Increase integral accuracy.
 SCF Done:  E(RB3LYP) =  -627.443753830     A.U. after   12 cycles
            NFock= 12  Conv=0.66D-08     -V/T= 2.0093
 QCSCF skips out because SCF is already converged.
 Calling FoFJK, ICntrl=      2127 FMM=F ISym2X=0 I1Cent= 0 IOpClX= 0 NMat=1 NMatS=1 NMatT=0.
 ***** Axes restored to original set *****
 -------------------------------------------------------------------
 Center     Atomic                   Forces (Hartrees/Bohr)
 Number     Number              X              Y              Z
 -------------------------------------------------------------------
      1        6           0.001946027    0.000438699   -0.000430390
      2        6           0.004033830   -0.010347782   -0.002155104
      3        7          -0.002264779    0.003460659    0.001141838
      4        6          -0.000379001    0.004273903    0.000076226
      5        6          -0.000291173   -0.008017723   -0.002033825
      6        6           0.019626117    0.014054116    0.001109644
      7        8          -0.007043925   -0.000722548    0.000816598
      8        7          -0.017149918   -0.003701934    0.001201008
      9        7          -0.002011154   -0.002531599    0.000064889
     10        6           0.001516938    0.002364448   -0.000302524
     11        6           0.000450402   -0.000303481   -0.000282810
     12        6           0.003645314   -0.001174802    0.006145396
     13        8          -0.000695659    0.000384241   -0.007033324
     14        1          -0.000078959   -0.000135481   -0.000019405
     15        1          -0.000026700   -0.000036378    0.000088798
     16        1          -0.000047682    0.000480742    0.000357188
     17        1          -0.000649245    0.001990114   -0.000095199
     18        1           0.000118890   -0.000188999   -0.000262156
     19        1           0.001329608   -0.001818061   -0.000677766
     20        1           0.000330494   -0.000644640    0.000172039
     21        1          -0.000205625    0.000387048    0.000124865
     22        1          -0.000132274   -0.000331837    0.000763410
     23        1          -0.000054437   -0.000229330    0.000948276
     24        1          -0.000583118    0.001523075   -0.000233085
     25        1          -0.001122965    0.000666687   -0.000527644
     26        1          -0.000261007    0.000160866    0.001043056
 -------------------------------------------------------------------
 Cartesian Forces:  Max     0.019626117 RMS     0.004116242

 GradGradGradGradGradGradGradGradGradGradGradGradGradGradGradGradGradGrad
 Berny optimization.
 Using GEDIIS/GDIIS optimizer.
 FormGI is forming the generalized inverse of G from B-inverse, IUseBI=4.
 Internal  Forces:  Max     0.013308405 RMS     0.002018195
 Search for a local minimum.
 Step number   2 out of a maximum of  137
 All quantities printed in internal units (Hartrees-Bohrs-Radians)
 Mixed Optimization -- RFO/linear search
 Update second derivatives using D2CorX and points    1    2
 DE= -9.16D-03 DEPred=-9.17D-03 R= 9.99D-01
 TightC=F SS=  1.41D+00  RLast= 2.80D-01 DXNew= 5.0454D-01 8.3996D-01
 Trust test= 9.99D-01 RLast= 2.80D-01 DXMaxT set to 5.05D-01
 ITU=  1  0
 Use linear search instead of GDIIS.
     Eigenvalues ---    0.00235   0.00457   0.00744   0.00809   0.01315
     Eigenvalues ---    0.01590   0.01722   0.01867   0.01890   0.02002
     Eigenvalues ---    0.02102   0.02227   0.02308   0.02538   0.02610
     Eigenvalues ---    0.03949   0.04568   0.04942   0.05570   0.05634
     Eigenvalues ---    0.05800   0.06228   0.07164   0.07474   0.11545
     Eigenvalues ---    0.13822   0.14430   0.15869   0.16000   0.16000
     Eigenvalues ---    0.16000   0.16000   0.16000   0.16000   0.16000
     Eigenvalues ---    0.16109   0.16812   0.18195   0.21627   0.22154
     Eigenvalues ---    0.23097   0.23535   0.24079   0.24998   0.24999
     Eigenvalues ---    0.26801   0.28600   0.30249   0.32354   0.34038
     Eigenvalues ---    0.34164   0.34176   0.34226   0.34255   0.34340
     Eigenvalues ---    0.34368   0.34373   0.34446   0.34848   0.36125
     Eigenvalues ---    0.36532   0.41015   0.44192   0.46124   0.46883
     Eigenvalues ---    0.47776   0.48568   0.50799   0.51497   0.57738
     Eigenvalues ---    0.67406   0.94202
 RFO step:  Lambda=-1.80291691D-03 EMin= 2.34939350D-03
 Quartic linear search produced a step of  0.09417.
 Iteration  1 RMS(Cart)=  0.05275195 RMS(Int)=  0.00071401
 Iteration  2 RMS(Cart)=  0.00129040 RMS(Int)=  0.00003045
 Iteration  3 RMS(Cart)=  0.00000053 RMS(Int)=  0.00003045
 Variable       Old X    -DE/DX   Delta X   Delta X   Delta X     New X
                                 (Linear)    (Quad)   (Total)
    R1        2.84791  -0.00191   0.00096  -0.00641  -0.00545   2.84245
    R2        2.06648   0.00012   0.00006   0.00038   0.00044   2.06692
    R3        2.06923   0.00010   0.00020   0.00031   0.00051   2.06974
    R4        2.06451   0.00008  -0.00024   0.00024   0.00000   2.06451
    R5        2.44595   0.00601   0.00039   0.00962   0.01000   2.45595
    R6        2.58975  -0.00705   0.00170  -0.01414  -0.01246   2.57730
    R7        2.60970   0.00329   0.00131   0.00708   0.00838   2.61808
    R8        2.59662   0.00066   0.00548   0.00126   0.00676   2.60338
    R9        2.61204  -0.00175  -0.00028  -0.00395  -0.00423   2.60781
   R10        2.73681  -0.00593  -0.00324  -0.01829  -0.02152   2.71530
   R11        2.04219   0.00041   0.00032   0.00124   0.00155   2.04374
   R12        2.32511  -0.00564   0.00093  -0.00655  -0.00563   2.31948
   R13        2.64067   0.01331   0.00699   0.02768   0.03467   2.67534
   R14        1.91430   0.00024   0.00074   0.00060   0.00134   1.91564
   R15        2.75910   0.00361  -0.00120   0.01083   0.00963   2.76873
   R16        1.92412  -0.00170  -0.00041  -0.00420  -0.00462   1.91950
   R17        2.89673  -0.00162   0.00169  -0.00580  -0.00410   2.89262
   R18        2.89297   0.00066  -0.00165   0.00244   0.00079   2.89376
   R19        2.06579   0.00054  -0.00045   0.00170   0.00125   2.06704
   R20        2.07180   0.00029   0.00012   0.00092   0.00104   2.07284
   R21        2.07218  -0.00052   0.00028  -0.00165  -0.00137   2.07081
   R22        2.06924  -0.00040  -0.00003  -0.00127  -0.00129   2.06794
   R23        2.68980  -0.00599  -0.00090  -0.01586  -0.01675   2.67304
   R24        2.06566   0.00078  -0.00021   0.00246   0.00225   2.06791
   R25        2.08432   0.00135   0.00135   0.00436   0.00571   2.09003
   R26        1.84141   0.00002  -0.00093  -0.00001  -0.00094   1.84047
    A1        1.95371   0.00032   0.00056   0.00304   0.00359   1.95730
    A2        1.91640  -0.00005   0.00137  -0.00094   0.00043   1.91683
    A3        1.91488  -0.00043   0.00039  -0.00312  -0.00274   1.91214
    A4        1.89493  -0.00007  -0.00070  -0.00003  -0.00074   1.89419
    A5        1.90136   0.00027  -0.00010   0.00309   0.00299   1.90434
    A6        1.88099  -0.00006  -0.00160  -0.00217  -0.00378   1.87721
    A7        2.09191   0.00045  -0.00063   0.00146   0.00084   2.09274
    A8        2.05006   0.00029   0.00211   0.00085   0.00298   2.05304
    A9        2.14113  -0.00075  -0.00148  -0.00227  -0.00379   2.13734
   A10        2.05275  -0.00025  -0.00184  -0.00087  -0.00273   2.05002
   A11        2.14904   0.00029   0.00247   0.00030   0.00278   2.15182
   A12        1.95157   0.00273  -0.00683   0.01208   0.00521   1.95678
   A13        2.18241  -0.00303   0.00435  -0.01260  -0.00828   2.17412
   A14        2.09076   0.00095   0.00075   0.00333   0.00410   2.09487
   A15        2.16949  -0.00248   0.00010  -0.01522  -0.01514   2.15435
   A16        2.02290   0.00154  -0.00084   0.01193   0.01106   2.03396
[...]
   164    N    8  py     Val( 2p)     0.66064      -0.14334
   165    N    8  py     Ryd( 4p)     0.00143       1.33059
   166    N    8  py     Ryd( 3p)     0.00040       1.00065
   167    N    8  py     Ryd( 5p)     0.00003       4.58225
   168    N    8  pz     Val( 2p)     0.79791      -0.15448
   169    N    8  pz     Ryd( 3p)     0.00116       0.57174
   170    N    8  pz     Ryd( 4p)     0.00021       0.83414
   171    N    8  pz     Ryd( 5p)     0.00000       3.95841
   172    N    8  dxy    Ryd( 3d)     0.00039       3.01971
   173    N    8  dxz    Ryd( 3d)     0.00010       2.29871
   174    N    8  dyz    Ryd( 3d)     0.00020       2.40409
   175    N    8  dx2y2  Ryd( 3d)     0.00045       3.07153
   176    N    8  dz2    Ryd( 3d)     0.00030       2.73429
 
   177    N    9  S      Cor( 1S)     0.99966     -14.05540
   178    N    9  S      Val( 2S)     0.63317      -0.43541
   179    N    9  S      Ryd( 3S)     0.00128       1.97099
   180    N    9  S      Ryd( 4S)     0.00032       1.97194
   181    N    9  S      Ryd( 5S)     0.00000      35.01737
   182    N    9  px     Val( 2p)     0.64124      -0.12676
   183    N    9  px     Ryd( 4p)     0.00106       1.43915
   184    N    9  px     Ryd( 3p)     0.00070       1.34155
   185    N    9  px     Ryd( 5p)     0.00002       4.42759
   186    N    9  py     Val( 2p)     0.68681      -0.12775
   187    N    9  py     Ryd( 4p)     0.00272       0.93261
   188    N    9  py     Ryd( 3p)     0.00062       0.86148
   189    N    9  py     Ryd( 5p)     0.00001       4.32717
   190    N    9  pz     Val( 2p)     0.84965      -0.14597
   191    N    9  pz     Ryd( 3p)     0.00404       0.78049
   192    N    9  pz     Ryd( 4p)     0.00024       0.90115
   193    N    9  pz     Ryd( 5p)     0.00001       4.09734
   194    N    9  dxy    Ryd( 3d)     0.00035       2.97548
   195    N    9  dxz    Ryd( 3d)     0.00027       2.43746
   196    N    9  dyz    Ryd( 3d)     0.00042       2.62168
   197    N    9  dx2y2  Ryd( 3d)     0.00045       3.00420
   198    N    9  dz2    Ryd( 3d)     0.00027       2.67973
 
   199    C   10  S      Cor( 1S)     0.99960      -9.98656
   200    C   10  S      Val( 2S)     0.47735      -0.13096
   201    C   10  S      Ryd( 4S)     0.00243       3.46139
   202    C   10  S      Ryd( 3S)     0.00060       1.13090
   203    C   10  S      Ryd( 5S)     0.00006      15.74952
   204    C   10  px     Val( 2p)     0.46887       0.01362
   205    C   10  px     Ryd( 3p)     0.00148       1.22226
   206    C   10  px     Ryd( 4p)     0.00034       1.42992
   207    C   10  px     Ryd( 5p)     0.00007       1.81125
   208    C   10  py     Val( 2p)     0.51936       0.00570
   209    C   10  py     Ryd( 3p)     0.00157       1.01157
   210    C   10  py     Ryd( 4p)     0.00031       1.04726
   211    C   10  py     Ryd( 5p)     0.00010       2.08819
   212    C   10  pz     Val( 2p)     0.54767      -0.00151
   213    C   10  pz     Ryd( 3p)     0.00143       1.25547
   214    C   10  pz     Ryd( 4p)     0.00037       1.61081
   215    C   10  pz     Ryd( 5p)     0.00012       1.79016
   216    C   10  dxy    Ryd( 3d)     0.00060       2.39017
   217    C   10  dxz    Ryd( 3d)     0.00043       2.05287
   218    C   10  dyz    Ryd( 3d)     0.00067       2.33331
   219    C   10  dx2y2  Ryd( 3d)     0.00033       2.13580
   220    C   10  dz2    Ryd( 3d)     0.00043       2.39720
 
   221    C   11  S      Cor( 1S)     0.99964      -9.92772
   222    C   11  S      Val( 2S)     0.54180      -0.16565
   223    C   11  S      Ryd( 4S)     0.00047       1.50188
   224    C   11  S      Ryd( 3S)     0.00030       1.37632
   225    C   11  S      Ryd( 5S)     0.00001      20.78619
   226    C   11  px     Val( 2p)     0.60977       0.00262
   227    C   11  px     Ryd( 3p)     0.00086       0.70645
   228    C   11  px     Ryd( 4p)     0.00021       0.77421
   229    C   11  px     Ryd( 5p)     0.00002       3.04387
   230    C   11  py     Val( 2p)     0.59958       0.00205
   231    C   11  py     Ryd( 3p)     0.00082       0.77807
   232    C   11  py     Ryd( 4p)     0.00021       0.96632
   233    C   11  py     Ryd( 5p)     0.00003       3.00664
   234    C   11  pz     Val( 2p)     0.53767       0.01201
   235    C   11  pz     Ryd( 3p)     0.00079       1.27520
   236    C   11  pz     Ryd( 4p)     0.00025       1.69935
   237    C   11  pz     Ryd( 5p)     0.00005       2.98606
   238    C   11  dxy    Ryd( 3d)     0.00048       2.28929
   239    C   11  dxz    Ryd( 3d)     0.00017       2.02726
   240    C   11  dyz    Ryd( 3d)     0.00042       2.29719
   241    C   11  dx2y2  Ryd( 3d)     0.00019       2.05118
   242    C   11  dz2    Ryd( 3d)     0.00035       2.45193
 
   243    C   12  S      Cor( 1S)     0.99957     -10.00326
   244    C   12  S      Val( 2S)     0.49799      -0.14925
   245    C   12  S      Ryd( 3S)     0.00219       1.31997
   246    C   12  S      Ryd( 4S)     0.00026       2.17852
   247    C   12  S      Ryd( 5S)     0.00002      20.78744
   248    C   12  px     Val( 2p)     0.54708      -0.00047
   249    C   12  px     Ryd( 3p)     0.00114       1.14306
   250    C   12  px     Ryd( 4p)     0.00051       1.54252
   251    C   12  px     Ryd( 5p)     0.00007       2.38206
   252    C   12  py     Val( 2p)     0.56088      -0.00131
   253    C   12  py     Ryd( 4p)     0.00140       0.92621
   254    C   12  py     Ryd( 3p)     0.00031       0.89565
   255    C   12  py     Ryd( 5p)     0.00005       2.86099
   256    C   12  pz     Val( 2p)     0.38869       0.01959
   257    C   12  pz     Ryd( 4p)     0.00354       0.86241
   258    C   12  pz     Ryd( 3p)     0.00077       0.68166
   259    C   12  pz     Ryd( 5p)     0.00008       2.74314
   260    C   12  dxy    Ryd( 3d)     0.00049       2.39052
   261    C   12  dxz    Ryd( 3d)     0.00069       2.01199
   262    C   12  dyz    Ryd( 3d)     0.00102       2.18540
   263    C   12  dx2y2  Ryd( 3d)     0.00031       2.08889
   264    C   12  dz2    Ryd( 3d)     0.00110       2.31016
 
   265    O   13  S      Cor( 1S)     0.99990     -18.82676
   266    O   13  S      Val( 2S)     0.84024      -0.80835
   267    O   13  S      Ryd( 4S)     0.00044       1.45847
   268    O   13  S      Ryd( 3S)     0.00002       1.31928
   269    O   13  S      Ryd( 5S)     0.00000      49.78285
   270    O   13  px     Val( 2p)     0.82177      -0.19656
   271    O   13  px     Ryd( 3p)     0.00106       0.84503
   272    O   13  px     Ryd( 4p)     0.00018       1.02487
   273    O   13  px     Ryd( 5p)     0.00001       5.36065
   274    O   13  py     Val( 2p)     0.93414      -0.20485
   275    O   13  py     Ryd( 3p)     0.00160       0.76531
   276    O   13  py     Ryd( 4p)     0.00011       1.06696
   277    O   13  py     Ryd( 5p)     0.00000       5.17277
   278    O   13  pz     Val( 2p)     0.76864      -0.20432
   279    O   13  pz     Ryd( 3p)     0.00071       0.82889
   280    O   13  pz     Ryd( 4p)     0.00017       0.88082
   281    O   13  pz     Ryd( 5p)     0.00001       5.27078
   282    O   13  dxy    Ryd( 3d)     0.00040       3.28992
   283    O   13  dxz    Ryd( 3d)     0.00034       3.19413
   284    O   13  dyz    Ryd( 3d)     0.00027       3.20498
   285    O   13  dx2y2  Ryd( 3d)     0.00037       3.33113
   286    O   13  dz2    Ryd( 3d)     0.00060       3.58402
 
   287    H   14  S      Val( 1S)     0.39413       0.12096
   288    H   14  S      Ryd( 2S)     0.00037       0.31961
   289    H   14  S      Ryd( 3S)     0.00033       1.24214
   290    H   14  S      Ryd( 4S)     0.00002       1.38040
   291    H   14  px     Ryd( 2p)     0.00010       2.25827
   292    H   14  py     Ryd( 2p)     0.00007       1.86813
   293    H   14  pz     Ryd( 2p)     0.00010       2.42073
 
   294    H   15  S      Val( 1S)     0.37782       0.11181
   295    H   15  S      Ryd( 2S)     0.00667       0.25637
   296    H   15  S      Ryd( 3S)     0.00028       1.12919
   297    H   15  S      Ryd( 4S)     0.00003       1.39477
   298    H   15  px     Ryd( 2p)     0.00009       2.20953
   299    H   15  py     Ryd( 2p)     0.00007       1.87431
   300    H   15  pz     Ryd( 2p)     0.00011       2.48981
 
   301    H   16  S      Val( 1S)     0.38539       0.13835
   302    H   16  S      Ryd( 2S)     0.00092       0.40759
   303    H   16  S      Ryd( 4S)     0.00029       1.60797
   304    H   16  S      Ryd( 3S)     0.00003       0.97690
   305    H   16  px     Ryd( 2p)     0.00007       2.11843
   306    H   16  py     Ryd( 2p)     0.00010       2.57675
   307    H   16  pz     Ryd( 2p)     0.00005       1.86979
 
   308    H   17  S      Val( 1S)     0.39124       0.15988
   309    H   17  S      Ryd( 3S)     0.00037       1.11791
   310    H   17  S      Ryd( 4S)     0.00030       1.33243
   311    H   17  S      Ryd( 2S)     0.00006       0.89495
   312    H   17  px     Ryd( 2p)     0.00011       2.49591
   313    H   17  py     Ryd( 2p)     0.00018       2.65685
   314    H   17  pz     Ryd( 2p)     0.00011       1.76157
 
   315    H   18  S      Val( 1S)     0.29685       0.16875
   316    H   18  S      Ryd( 2S)     0.00103       0.31781
   317    H   18  S      Ryd( 3S)     0.00059       0.79350
   318    H   18  S      Ryd( 4S)     0.00023       2.50445
   319    H   18  px     Ryd( 2p)     0.00022       2.82291
   320    H   18  py     Ryd( 2p)     0.00007       2.16332
   321    H   18  pz     Ryd( 2p)     0.00022       1.70645
 
   322    H   19  S      Val( 1S)     0.30491       0.17169
   323    H   19  S      Ryd( 2S)     0.00129       0.52444
   324    H   19  S      Ryd( 3S)     0.00083       0.99571
   325    H   19  S      Ryd( 4S)     0.00021       2.09036
   326    H   19  px     Ryd( 2p)     0.00009       2.12759
   327    H   19  py     Ryd( 2p)     0.00021       2.66346
   328    H   19  pz     Ryd( 2p)     0.00029       2.00228
 
   329    H   20  S      Val( 1S)     0.39972       0.13049
   330    H   20  S      Ryd( 2S)     0.00120       1.14145
   331    H   20  S      Ryd( 4S)     0.00025       2.20179
   332    H   20  S      Ryd( 3S)     0.00018       2.07923
   333    H   20  px     Ryd( 2p)     0.00007       1.93991
   334    H   20  py     Ryd( 2p)     0.00015       2.59061
   335    H   20  pz     Ryd( 2p)     0.00014       2.27338
 
   336    H   21  S      Val( 1S)     0.39834       0.12197
   337    H   21  S      Ryd( 2S)     0.00098       0.35453
   338    H   21  S      Ryd( 4S)     0.00035       1.60119
   339    H   21  S      Ryd( 3S)     0.00004       1.08042
   340    H   21  px     Ryd( 2p)     0.00006       1.94709
   341    H   21  py     Ryd( 2p)     0.00010       2.40181
   342    H   21  pz     Ryd( 2p)     0.00010       2.26234
 
   343    H   22  S      Val( 1S)     0.39645       0.12310
   344    H   22  S      Ryd( 2S)     0.00095       0.33871
   345    H   22  S      Ryd( 4S)     0.00027       1.36453
   346    H   22  S      Ryd( 3S)     0.00002       1.27450
   347    H   22  px     Ryd( 2p)     0.00010       2.37201
   348    H   22  py     Ryd( 2p)     0.00010       2.31835
   349    H   22  pz     Ryd( 2p)     0.00007       1.86669
 
   350    H   23  S      Val( 1S)     0.39016       0.13971
   351    H   23  S      Ryd( 2S)     0.00042       0.45945
   352    H   23  S      Ryd( 4S)     0.00037       1.42389
   353    H   23  S      Ryd( 3S)     0.00002       1.15572
   354    H   23  px     Ryd( 2p)     0.00013       2.53814
   355    H   23  py     Ryd( 2p)     0.00007       2.10654
   356    H   23  pz     Ryd( 2p)     0.00006       1.96434
 
   357    H   24  S      Val( 1S)     0.41014       0.10756
   358    H   24  S      Ryd( 2S)     0.00025       0.38751
   359    H   24  S      Ryd( 3S)     0.00044       1.06598
   360    H   24  S      Ryd( 4S)     0.00005       1.62363
   361    H   24  px     Ryd( 2p)     0.00019       2.47183
   362    H   24  py     Ryd( 2p)     0.00012       2.20925
   363    H   24  pz     Ryd( 2p)     0.00004       1.94175
 
   364    H   25  S      Val( 1S)     0.42472       0.09238
   365    H   25  S      Ryd( 2S)     0.00036       0.39906
   366    H   25  S      Ryd( 3S)     0.00068       1.23325
   367    H   25  S      Ryd( 4S)     0.00005       1.46862
   368    H   25  px     Ryd( 2p)     0.00011       2.01599
   369    H   25  py     Ryd( 2p)     0.00018       2.48697
   370    H   25  pz     Ryd( 2p)     0.00005       2.21932
 
   371    H   26  S      Val( 1S)     0.26381       0.20543
   372    H   26  S      Ryd( 2S)     0.00068       0.47500
   373    H   26  S      Ryd( 4S)     0.00040       2.34429
   374    H   26  S      Ryd( 3S)     0.00005       0.70714
   375    H   26  px     Ryd( 2p)     0.00052       2.49210
   376    H   26  py     Ryd( 2p)     0.00068       1.85323
   377    H   26  pz     Ryd( 2p)     0.00054       1.87758

 WARNING:  Population inversion found on atom  C    2
           Population inversion found on atom  N    3
           Population inversion found on atom  C    4
           Population inversion found on atom  C    6
           Population inversion found on atom  O    7
           Population inversion found on atom  N    8
           Population inversion found on atom  N    9
           Population inversion found on atom  C   10
           Population inversion found on atom  C   11
           Population inversion found on atom  C   12
           Population inversion found on atom  O   13
           Population inversion found on atom  H   16
           Population inversion found on atom  H   17
           Population inversion found on atom  H   20
           Population inversion found on atom  H   21
           Population inversion found on atom  H   22
           Population inversion found on atom  H   23
           Population inversion found on atom  H   24
           Population inversion found on atom  H   25
           Population inversion found on atom  H   26


 Summary of Natural Population Analysis:                  
                                                          
                                       Natural Population 
                Natural  -----------------------------------------------
    Atom  No    Charge         Core      Valence    Rydberg      Total
 -----------------------------------------------------------------------
      C    1   -0.30947      0.99963     2.30422    0.00562     3.30947
      C    2    0.28258      0.99963     1.70336    0.01443     2.71742
      N    3   -0.29821      0.99964     2.78846    0.01011     3.79821
      C    4    0.23539      0.99952     1.75033    0.01476     2.76461
      C    5   -0.21574      0.99947     2.20793    0.00834     3.21574
      C    6    0.31917      0.99963     1.65958    0.02162     2.68083
      O    7   -0.33681      0.99988     3.33076    0.00618     4.33681
      N    8   -0.29474      0.99963     2.78639    0.00872     3.79474
      N    9   -0.32331      0.99966     2.81086    0.01278     3.82331
      C   10   -0.02421      0.99960     2.01326    0.01136     3.02421
      C   11   -0.29408      0.99964     2.28882    0.00562     3.29408
      C   12   -0.00816      0.99957     1.99465    0.01393     3.00816
      O   13   -0.37099      0.99990     3.36478    0.00631     4.37099
      H   14    0.10489      0.00000     0.39413    0.00099     0.39511
      H   15    0.11494      0.00000     0.37782    0.00725     0.38506
      H   16    0.11315      0.00000     0.38539    0.00146     0.38685
      H   17    0.10762      0.00000     0.39124    0.00113     0.39238
      H   18    0.20079      0.00000     0.29685    0.00236     0.29921
      H   19    0.19216      0.00000     0.30491    0.00292     0.30784
      H   20    0.09829      0.00000     0.39972    0.00199     0.40171
      H   21    0.10003      0.00000     0.39834    0.00163     0.39997
      H   22    0.10203      0.00000     0.39645    0.00152     0.39797
      H   23    0.10877      0.00000     0.39016    0.00107     0.39123
      H   24    0.08877      0.00000     0.41014    0.00109     0.41123
      H   25    0.07385      0.00000     0.42472    0.00143     0.42615
      H   26    0.23331      0.00000     0.26381    0.00288     0.26669
 =======================================================================
   * Total *   -0.00000     12.99541    35.83708    0.16751    49.00000

                                 Natural Population      
 --------------------------------------------------------
   Core                      12.99541 ( 99.9647% of  13)
   Valence                   35.83708 ( 99.5475% of  36)
   Natural Minimal Basis     48.83249 ( 99.6581% of  49)
   Natural Rydberg Basis      0.16751 (  0.3419% of  49)
 --------------------------------------------------------

    Atom  No          Natural Electron Configuration
 ----------------------------------------------------------------------------
      C    1      [core]2S( 0.55)2p( 1.76)
      C    2      [core]2S( 0.39)2p( 1.31)4p( 0.01)
      N    3      [core]2S( 0.68)2p( 2.10)
      C    4      [core]2S( 0.39)2p( 1.36)3p( 0.01)
      C    5      [core]2S( 0.48)2p( 1.73)
      C    6      [core]2S( 0.38)2p( 1.27)3d( 0.01)4p( 0.01)
      O    7      [core]2S( 0.85)2p( 2.48)
      N    8      [core]2S( 0.63)2p( 2.15)
      N    9      [core]2S( 0.63)2p( 2.18)3p( 0.01)
      C   10      [core]2S( 0.48)2p( 1.54)
      C   11      [core]2S( 0.54)2p( 1.75)
      C   12      [core]2S( 0.50)2p( 1.50)4p( 0.01)
      O   13      [core]2S( 0.84)2p( 2.52)
      H   14            1S( 0.39)
      H   15            1S( 0.38)2S( 0.01)
      H   16            1S( 0.39)
      H   17            1S( 0.39)
      H   18            1S( 0.30)
      H   19            1S( 0.30)
      H   20            1S( 0.40)
      H   21            1S( 0.40)
      H   22            1S( 0.40)
      H   23            1S( 0.39)
      H   24            1S( 0.41)
      H   25            1S( 0.42)
      H   26            1S( 0.26)


 NBO analysis skipped by request.
 1\1\GINC-NODE201\SP\UB3LYP\6-311++G(d,p)\C8H13N3O2(1-,2)\VSC10255\09-D
 ec-2020\0\\# B3LYP/6-311++G(d,p) empiricaldispersion=gd3bj scf=xqc pop
 =npa geom=check\\CID_136956082_JID_3411_Energie_anion\\-1,2\C,0,-2.362
 690222,-1.2926289834,0.1407885004\C,0,-1.1220709415,-0.4467192737,0.10
 98108333\N,0,-1.2008417415,0.8322615945,0.3442594914\C,0,-0.0231723157
 ,1.5569172527,0.3001107445\C,0,1.2023911346,0.9994501164,0.0042732943\
 C,0,1.3115631119,-0.4074329232,-0.2514322196\O,0,2.3122191909,-1.05924
 37532,-0.5232231603\N,0,0.0516707955,-1.0706454914,-0.1682943723\N,0,-
 0.2199383429,2.8833635571,0.6104299284\C,0,0.740555893,3.9434490634,0.
 2992975933\C,0,0.7407284346,4.3229541667,-1.1835726388\C,0,0.418989671
 9,5.125912612,1.2171966654\O,0,0.5086881481,4.7706907379,2.5813280305\
 H,0,-2.524363203,-1.7844936516,-0.8256247142\H,0,-2.2811566998,-2.0751
 653931,0.9043450751\H,0,-3.2210324639,-0.6603243197,0.3685702994\H,0,2
 .1140334925,1.5786898428,-0.0434018538\H,0,0.0814263777,-2.0675867201,
 -0.3486925806\H,0,-1.1986690909,3.1424036121,0.5283111949\H,0,1.728613
 2935,3.5744742524,0.5910477924\H,0,-0.2338064307,4.7287134767,-1.48074
 01965\H,0,1.5039727655,5.0807132919,-1.3925618963\H,0,0.948749281,3.44
 58804423,-1.8036602275\H,0,1.1354374191,5.9349290102,1.0450727432\H,0,
 -0.5845713693,5.5158280957,0.9624589847\H,0,0.0750938112,3.9023893846,
 2.6558326888\\Version=ES64L-G16RevA.03\State=2-A\HF=-627.6343654\S2=0.
 751395\S2-1=0.\S2A=0.750001\RMSD=2.197e-11\Dipole=-0.0483494,1.1335428
 ,0.2056604\Quadrupole=6.1127484,-20.4168789,14.3041305,-4.5606535,4.97
 25555,2.9325035\PG=C01 [X(C8H13N3O2)]\\@


 THE DIFFERENCE BETWEEN A NOOSE AND A HALO IS ONLY 12 INCHES.
 Job cpu time:       0 days  0 hours 32 minutes 54.6 seconds.
 Elapsed time:       0 days  0 hours  8 minutes 18.1 seconds.
 File lengths (MBytes):  RWF=    188 Int=      0 D2E=      0 Chk=     20 Scr=      8
 Normal termination of Gaussian 16 at Wed Dec  9 23:35:02 2020.
