 Entering Gaussian System, Link 0=g16
 Initial command:
 /apps/brussel/CO7/skylake/software/Gaussian/G16.A.03-intel-2017b/g16/l1.exe "/scratch/brussel/102/vsc10255/3570287[3907].master01.hydra.brussel.vsc/Gau-158586.inp" -scrdir="/scratch/brussel/102/vsc10255/3570287[3907].master01.hydra.brussel.vsc/"
 Entering Link 1 = /apps/brussel/CO7/skylake/software/Gaussian/G16.A.03-intel-2017b/g16/l1.exe.bin PID=    158587.
  
 Copyright (c) 1988,1990,1992,1993,1995,1998,2003,2009,2016,
            Gaussian, Inc.  All Rights Reserved.
  
 This is part of the Gaussian(R) 16 program.  It is based on
 the Gaussian(R) 09 system (copyright 2009, Gaussian, Inc.),
 the Gaussian(R) 03 system (copyright 2003, Gaussian, Inc.),
 the Gaussian(R) 98 system (copyright 1998, Gaussian, Inc.),
 the Gaussian(R) 94 system (copyright 1995, Gaussian, Inc.),
 the Gaussian 92(TM) system (copyright 1992, Gaussian, Inc.),
 the Gaussian 90(TM) system (copyright 1990, Gaussian, Inc.),
 the Gaussian 88(TM) system (copyright 1988, Gaussian, Inc.),
 the Gaussian 86(TM) system (copyright 1986, Carnegie Mellon
 University), and the Gaussian 82(TM) system (copyright 1983,
 Carnegie Mellon University). Gaussian is a federally registered
 trademark of Gaussian, Inc.
  
 This software contains proprietary and confidential information,
 including trade secrets, belonging to Gaussian, Inc.
  
 This software is provided under written license and may be
 used, copied, transmitted, or stored only in accord with that
 written license.
  
 The following legend is applicable only to US Government
 contracts under FAR:
  
                    RESTRICTED RIGHTS LEGEND
  
 Use, reproduction and disclosure by the US Government is
 subject to restrictions as set forth in subparagraphs (a)
 and (c) of the Commercial Computer Software - Restricted
 Rights clause in FAR 52.227-19.
  
 Gaussian, Inc.
 340 Quinnipiac St., Bldg. 40, Wallingford CT 06492
  
  
 ---------------------------------------------------------------
 Warning -- This program may not be used in any manner that
 competes with the business of Gaussian, Inc. or will provide
 assistance to any competitor of Gaussian, Inc.  The licensee
 of this program is prohibited from giving any competitor of
 Gaussian, Inc. access to this program.  By using this program,
 the user acknowledges that Gaussian, Inc. is engaged in the
 business of creating and licensing software in the field of
 computational chemistry and represents and warrants to the
 licensee that it is not a competitor of Gaussian, Inc. and that
 it will not use this program in any manner prohibited above.
 ---------------------------------------------------------------
  

 Cite this work as:
 Gaussian 16, Revision A.03,
 M. J. Frisch, G. W. Trucks, H. B. Schlegel, G. E. Scuseria, 
 M. A. Robb, J. R. Cheeseman, G. Scalmani, V. Barone, 
 G. A. Petersson, H. Nakatsuji, X. Li, M. Caricato, A. V. Marenich, 
 J. Bloino, B. G. Janesko, R. Gomperts, B. Mennucci, H. P. Hratchian, 
 J. V. Ortiz, A. F. Izmaylov, J. L. Sonnenberg, D. Williams-Young, 
 F. Ding, F. Lipparini, F. Egidi, J. Goings, B. Peng, A. Petrone, 
 T. Henderson, D. Ranasinghe, V. G. Zakrzewski, J. Gao, N. Rega, 
 G. Zheng, W. Liang, M. Hada, M. Ehara, K. Toyota, R. Fukuda, 
 J. Hasegawa, M. Ishida, T. Nakajima, Y. Honda, O. Kitao, H. Nakai, 
 T. Vreven, K. Throssell, J. A. Montgomery, Jr., J. E. Peralta, 
 F. Ogliaro, M. J. Bearpark, J. J. Heyd, E. N. Brothers, K. N. Kudin, 
 V. N. Staroverov, T. A. Keith, R. Kobayashi, J. Normand, 
 K. Raghavachari, A. P. Rendell, J. C. Burant, S. S. Iyengar, 
 J. Tomasi, M. Cossi, J. M. Millam, M. Klene, C. Adamo, R. Cammi, 
 J. W. Ochterski, R. L. Martin, K. Morokuma, O. Farkas, 
 J. B. Foresman, and D. J. Fox, Gaussian, Inc., Wallingford CT, 2016.
 
 ******************************************
 Gaussian 16:  ES64L-G16RevA.03 25-Dec-2016
                13-Dec-2020 
 ******************************************
 %chk=JID_3907.chk
 %mem=8GB
 %nprocshared=4
 Will use up to    4 processors via shared memory.
 -----------------------------------------------------------
 # opt freq B3LYP/6-31G(d) empiricaldispersion=gd3bj scf=xqc
 -----------------------------------------------------------
 1/18=20,19=15,26=3,38=1/1,3;
 2/9=110,12=2,17=6,18=5,40=1/2;
 3/5=1,6=6,7=1,11=2,25=1,30=1,71=1,74=-5,124=41/1,2,3;
 4//1;
 5/5=2,8=3,13=1,38=5/2,8;
 6/7=2,8=2,9=2,10=2,28=1/1;
 7//1,2,3,16;
 1/18=20,19=15,26=3/3(2);
 2/9=110/2;
 99//99;
 2/9=110/2;
 3/5=1,6=6,7=1,11=2,25=1,30=1,71=1,74=-5,124=41/1,2,3;
 4/5=5,16=3,69=1/1;
 5/5=2,8=3,13=1,38=5/2,8;
 7//1,2,3,16;
 1/18=20,19=15,26=3/3(-5);
 2/9=110/2;
 6/7=2,8=2,9=2,10=2,19=2,28=1/1;
 99/9=1/99;
 -------------------------------
 CID_130603779_JID_3907_neutraal
 -------------------------------
 Symbolic Z-matrix:
 Charge =  0 Multiplicity = 1
 C                     1.05551   0.05929   0.05834 
 C                     0.51782   0.54217  -1.24496 
 C                     1.0811    1.78427  -1.88496 
 C                     1.29145   0.43989  -2.54816 
 C                     2.67646  -0.16695  -2.64645 
 C                     2.66703  -1.66304  -2.81343 
 N                     2.0735   -2.27835  -3.85564 
 N                     2.32262  -3.57405  -3.58086 
 N                     3.01601  -3.85924  -2.46161 
 C                     3.24667  -2.63587  -1.97657 
 C                     1.8713   -4.62605  -4.45678 
 N                     3.31325   0.45971  -3.83763 
 N                     4.76814   0.41402  -3.72929 
 H                     0.98062  -1.0309    0.11661 
 H                     0.47104   0.48259   0.88153 
 H                     2.1007    0.34204   0.21507 
 H                    -0.55482   0.38513  -1.30536 
 H                     0.38973   2.4727   -2.3585 
 H                     1.93565   2.27042  -1.4279 
 H                     0.70299   0.23107  -3.43827 
 H                     3.25081   0.09847  -1.7499 
 H                     3.80926  -2.51029  -1.06239 
 H                     2.74921  -5.10316  -4.89868 
 H                     1.29818  -5.34532  -3.86674 
 H                     1.23983  -4.20098  -5.24093 
 H                     2.9779   -0.09219  -4.64017 
 H                     5.19632   0.66968  -4.62469 
 H                     5.09547   1.13228  -3.07571 
 

 GradGradGradGradGradGradGradGradGradGradGradGradGradGradGradGradGradGrad
 Berny optimization.
 Initialization pass.
                           ----------------------------
                           !    Initial Parameters    !
                           ! (Angstroms and Degrees)  !
 --------------------------                            --------------------------
 ! Name  Definition              Value          Derivative Info.                !
 --------------------------------------------------------------------------------
 ! R1    R(1,2)                  1.4903         estimate D2E/DX2                !
 ! R2    R(1,14)                 1.0943         estimate D2E/DX2                !
 ! R3    R(1,15)                 1.0947         estimate D2E/DX2                !
 ! R4    R(1,16)                 1.094          estimate D2E/DX2                !
 ! R5    R(2,3)                  1.5066         estimate D2E/DX2                !
 ! R6    R(2,4)                  1.519          estimate D2E/DX2                !
 ! R7    R(2,17)                 1.0858         estimate D2E/DX2                !
 ! R8    R(3,4)                  1.5137         estimate D2E/DX2                !
 ! R9    R(3,18)                 1.0845         estimate D2E/DX2                !
 ! R10   R(3,19)                 1.0842         estimate D2E/DX2                !
 ! R11   R(4,5)                  1.5153         estimate D2E/DX2                !
 ! R12   R(4,20)                 1.0873         estimate D2E/DX2                !
 ! R13   R(5,6)                  1.5054         estimate D2E/DX2                !
 ! R14   R(5,12)                 1.489          estimate D2E/DX2                !
 ! R15   R(5,21)                 1.0973         estimate D2E/DX2                !
 ! R16   R(6,7)                  1.348          estimate D2E/DX2                !
 ! R17   R(6,10)                 1.4081         estimate D2E/DX2                !
 ! R18   R(7,8)                  1.3477         estimate D2E/DX2                !
 ! R19   R(8,9)                  1.3472         estimate D2E/DX2                !
 ! R20   R(8,11)                 1.4414         estimate D2E/DX2                !
 ! R21   R(9,10)                 1.3361         estimate D2E/DX2                !
 ! R22   R(10,22)                1.0807         estimate D2E/DX2                !
 ! R23   R(11,23)                1.0925         estimate D2E/DX2                !
 ! R24   R(11,24)                1.0927         estimate D2E/DX2                !
 ! R25   R(11,25)                1.0929         estimate D2E/DX2                !
 ! R26   R(12,13)                1.4596         estimate D2E/DX2                !
 ! R27   R(12,26)                1.0301         estimate D2E/DX2                !
 ! R28   R(13,27)                1.0249         estimate D2E/DX2                !
 ! R29   R(13,28)                1.0248         estimate D2E/DX2                !
 ! A1    A(2,1,14)             110.1622         estimate D2E/DX2                !
 ! A2    A(2,1,15)             109.8586         estimate D2E/DX2                !
 ! A3    A(2,1,16)             112.7204         estimate D2E/DX2                !
 ! A4    A(14,1,15)            107.9771         estimate D2E/DX2                !
 ! A5    A(14,1,16)            108.3743         estimate D2E/DX2                !
 ! A6    A(15,1,16)            107.6016         estimate D2E/DX2                !
 ! A7    A(1,2,3)              120.2493         estimate D2E/DX2                !
 ! A8    A(1,2,4)              123.0065         estimate D2E/DX2                !
 ! A9    A(1,2,17)             110.9915         estimate D2E/DX2                !
 ! A10   A(3,2,17)             117.7093         estimate D2E/DX2                !
 ! A11   A(4,2,17)             116.4675         estimate D2E/DX2                !
 ! A12   A(2,3,18)             118.0664         estimate D2E/DX2                !
 ! A13   A(2,3,19)             119.0315         estimate D2E/DX2                !
 ! A14   A(4,3,18)             117.4546         estimate D2E/DX2                !
 ! A15   A(4,3,19)             118.2547         estimate D2E/DX2                !
 ! A16   A(18,3,19)            113.6969         estimate D2E/DX2                !
 ! A17   A(2,4,5)              123.2388         estimate D2E/DX2                !
 ! A18   A(2,4,20)             116.0812         estimate D2E/DX2                !
 ! A19   A(3,4,5)              120.7367         estimate D2E/DX2                !
 ! A20   A(3,4,20)             117.0023         estimate D2E/DX2                !
 ! A21   A(5,4,20)             111.387          estimate D2E/DX2                !
 ! A22   A(4,5,6)              113.5446         estimate D2E/DX2                !
 ! A23   A(4,5,12)             105.9165         estimate D2E/DX2                !
 ! A24   A(4,5,21)             109.1801         estimate D2E/DX2                !
 ! A25   A(6,5,12)             109.4023         estimate D2E/DX2                !
 ! A26   A(6,5,21)             109.5291         estimate D2E/DX2                !
 ! A27   A(12,5,21)            109.1459         estimate D2E/DX2                !
 ! A28   A(5,6,7)              122.8304         estimate D2E/DX2                !
 ! A29   A(5,6,10)             128.1782         estimate D2E/DX2                !
 ! A30   A(7,6,10)             108.9893         estimate D2E/DX2                !
 ! A31   A(6,7,8)              101.5263         estimate D2E/DX2                !
 ! A32   A(7,8,9)              117.9079         estimate D2E/DX2                !
 ! A33   A(7,8,11)             121.325          estimate D2E/DX2                !
 ! A34   A(9,8,11)             120.766          estimate D2E/DX2                !
 ! A35   A(8,9,10)             101.3402         estimate D2E/DX2                !
 ! A36   A(6,10,9)             110.2294         estimate D2E/DX2                !
 ! A37   A(6,10,22)            129.5488         estimate D2E/DX2                !
 ! A38   A(9,10,22)            120.2218         estimate D2E/DX2                !
 ! A39   A(8,11,23)            108.2349         estimate D2E/DX2                !
 ! A40   A(8,11,24)            108.4521         estimate D2E/DX2                !
 ! A41   A(8,11,25)            109.4556         estimate D2E/DX2                !
 ! A42   A(23,11,24)           110.6352         estimate D2E/DX2                !
 ! A43   A(23,11,25)           110.1173         estimate D2E/DX2                !
 ! A44   A(24,11,25)           109.9025         estimate D2E/DX2                !
 ! A45   A(5,12,13)            110.7151         estimate D2E/DX2                !
 ! A46   A(5,12,26)            104.9839         estimate D2E/DX2                !
 ! A47   A(13,12,26)           111.4412         estimate D2E/DX2                !
 ! A48   A(12,13,27)           110.1063         estimate D2E/DX2                !
 ! A49   A(12,13,28)           110.1067         estimate D2E/DX2                !
 ! A50   A(27,13,28)           104.4126         estimate D2E/DX2                !
 ! D1    D(14,1,2,3)          -149.1167         estimate D2E/DX2                !
 ! D2    D(14,1,2,4)           -77.2079         estimate D2E/DX2                !
 ! D3    D(14,1,2,17)           67.7248         estimate D2E/DX2                !
 ! D4    D(15,1,2,3)            92.0548         estimate D2E/DX2                !
 ! D5    D(15,1,2,4)           163.9635         estimate D2E/DX2                !
 ! D6    D(15,1,2,17)          -51.1038         estimate D2E/DX2                !
 ! D7    D(16,1,2,3)           -27.932          estimate D2E/DX2                !
 ! D8    D(16,1,2,4)            43.9768         estimate D2E/DX2                !
 ! D9    D(16,1,2,17)         -171.0905         estimate D2E/DX2                !
 ! D10   D(1,2,3,18)          -139.6057         estimate D2E/DX2                !
 ! D11   D(1,2,3,19)             5.165          estimate D2E/DX2                !
 ! D12   D(17,2,3,18)            1.1724         estimate D2E/DX2                !
 ! D13   D(17,2,3,19)          145.9431         estimate D2E/DX2                !
 ! D14   D(1,2,4,5)              0.2905         estimate D2E/DX2                !
 ! D15   D(1,2,4,20)           144.0182         estimate D2E/DX2                !
 ! D16   D(17,2,4,5)          -142.8959         estimate D2E/DX2                !
 ! D17   D(17,2,4,20)            0.8318         estimate D2E/DX2                !
 ! D18   D(18,3,4,5)           138.6912         estimate D2E/DX2                !
 ! D19   D(18,3,4,20)           -2.4942         estimate D2E/DX2                !
 ! D20   D(19,3,4,5)            -3.8125         estimate D2E/DX2                !
 ! D21   D(19,3,4,20)         -144.9979         estimate D2E/DX2                !
 ! D22   D(2,4,5,6)             85.507          estimate D2E/DX2                !
 ! D23   D(2,4,5,12)          -154.4221         estimate D2E/DX2                !
 ! D24   D(2,4,5,21)           -37.0163         estimate D2E/DX2                !
 ! D25   D(3,4,5,6)            157.1583         estimate D2E/DX2                !
 ! D26   D(3,4,5,12)           -82.7708         estimate D2E/DX2                !
 ! D27   D(3,4,5,21)            34.635          estimate D2E/DX2                !
 ! D28   D(20,4,5,6)           -59.6955         estimate D2E/DX2                !
 ! D29   D(20,4,5,12)           60.3754         estimate D2E/DX2                !
 ! D30   D(20,4,5,21)          177.7812         estimate D2E/DX2                !
 ! D31   D(4,5,6,7)             59.9226         estimate D2E/DX2                !
 ! D32   D(4,5,6,10)          -120.6583         estimate D2E/DX2                !
 ! D33   D(12,5,6,7)           -58.1519         estimate D2E/DX2                !
 ! D34   D(12,5,6,10)          121.2672         estimate D2E/DX2                !
 ! D35   D(21,5,6,7)          -177.7471         estimate D2E/DX2                !
 ! D36   D(21,5,6,10)            1.672          estimate D2E/DX2                !
 ! D37   D(4,5,12,13)          156.0049         estimate D2E/DX2                !
 ! D38   D(4,5,12,26)          -83.6117         estimate D2E/DX2                !
 ! D39   D(6,5,12,13)          -81.2546         estimate D2E/DX2                !
 ! D40   D(6,5,12,26)           39.1288         estimate D2E/DX2                !
 ! D41   D(21,5,12,13)          38.5762         estimate D2E/DX2                !
 ! D42   D(21,5,12,26)         158.9596         estimate D2E/DX2                !
 ! D43   D(5,6,7,8)            179.8789         estimate D2E/DX2                !
 ! D44   D(10,6,7,8)             0.3618         estimate D2E/DX2                !
 ! D45   D(5,6,10,9)           179.7274         estimate D2E/DX2                !
 ! D46   D(5,6,10,22)           -0.238          estimate D2E/DX2                !
 ! D47   D(7,6,10,9)            -0.7888         estimate D2E/DX2                !
 ! D48   D(7,6,10,22)          179.2458         estimate D2E/DX2                !
 ! D49   D(6,7,8,9)              0.1693         estimate D2E/DX2                !
 ! D50   D(6,7,8,11)          -179.4628         estimate D2E/DX2                !
 ! D51   D(7,8,9,10)            -0.6308         estimate D2E/DX2                !
 ! D52   D(11,8,9,10)          179.0034         estimate D2E/DX2                !
 ! D53   D(7,8,11,23)          113.4772         estimate D2E/DX2                !
 ! D54   D(7,8,11,24)         -126.4507         estimate D2E/DX2                !
 ! D55   D(7,8,11,25)           -6.5519         estimate D2E/DX2                !
 ! D56   D(9,8,11,23)          -66.1444         estimate D2E/DX2                !
 ! D57   D(9,8,11,24)           53.9277         estimate D2E/DX2                !
 ! D58   D(9,8,11,25)          173.8265         estimate D2E/DX2                !
 ! D59   D(8,9,10,6)             0.8082         estimate D2E/DX2                !
 ! D60   D(8,9,10,22)         -179.2227         estimate D2E/DX2                !
 ! D61   D(5,12,13,27)         168.5778         estimate D2E/DX2                !
 ! D62   D(5,12,13,28)         -76.8228         estimate D2E/DX2                !
 ! D63   D(26,12,13,27)         52.1233         estimate D2E/DX2                !
 ! D64   D(26,12,13,28)        166.7227         estimate D2E/DX2                !
 --------------------------------------------------------------------------------
 Trust Radius=3.00D-01 FncErr=1.00D-07 GrdErr=1.00D-06 EigMax=2.50D+02 EigMin=1.00D-04
 Number of steps in this run=    153 maximum allowed number of steps=    168.
 GradGradGradGradGradGradGradGradGradGradGradGradGradGradGradGradGradGrad

                          Input orientation:                          
 ---------------------------------------------------------------------
 Center     Atomic      Atomic             Coordinates (Angstroms)
 Number     Number       Type             X           Y           Z
 ---------------------------------------------------------------------
      1          6           0        1.055510    0.059290    0.058340
      2          6           0        0.517820    0.542170   -1.244960
      3          6           0        1.081100    1.784270   -1.884960
      4          6           0        1.291450    0.439890   -2.548160
      5          6           0        2.676460   -0.166950   -2.646450
      6          6           0        2.667030   -1.663040   -2.813430
      7          7           0        2.073500   -2.278350   -3.855640
      8          7           0        2.322620   -3.574050   -3.580860
      9          7           0        3.016010   -3.859240   -2.461610
     10          6           0        3.246670   -2.635870   -1.976570
     11          6           0        1.871300   -4.626050   -4.456780
     12          7           0        3.313250    0.459710   -3.837630
     13          7           0        4.768140    0.414020   -3.729290
     14          1           0        0.980620   -1.030900    0.116610
     15          1           0        0.471040    0.482590    0.881530
     16          1           0        2.100700    0.342040    0.215070
     17          1           0       -0.554820    0.385130   -1.305360
     18          1           0        0.389730    2.472700   -2.358500
     19          1           0        1.935650    2.270420   -1.427900
     20          1           0        0.702990    0.231070   -3.438270
     21          1           0        3.250810    0.098470   -1.749900
     22          1           0        3.809260   -2.510290   -1.062390
     23          1           0        2.749210   -5.103160   -4.898680
     24          1           0        1.298180   -5.345320   -3.866740
     25          1           0        1.239830   -4.200980   -5.240930
     26          1           0        2.977900   -0.092190   -4.640170
     27          1           0        5.196320    0.669680   -4.624690
     28          1           0        5.095470    1.132280   -3.075710
 ---------------------------------------------------------------------
                    Distance matrix (angstroms):
                    1          2          3          4          5
     1  C    0.000000
     2  C    1.490260   0.000000
     3  C    2.598581   1.506551   0.000000
     4  C    2.644686   1.518978   1.513750   0.000000
     5  C    3.161416   2.669598   2.632926   1.515311   0.000000
     6  C    3.716245   3.455742   3.906556   2.526837   1.505409
     7  N    4.671199   4.146218   4.623129   3.116077   2.506733
     8  N    5.296273   5.065274   5.755783   4.271006   3.550585
     9  N    5.054561   5.205151   5.993797   4.632938   3.712474
    10  C    4.025659   4.252272   4.922979   3.689160   2.620963
    11  C    6.557761   6.233634   6.952041   5.444521   4.879462
    12  N    4.520654   3.813550   3.248057   2.398083   1.488998
    13  N    5.315599   4.924788   4.344353   3.671936   2.425942
    14  H    1.094312   2.131339   3.455656   3.059549   3.355113
    15  H    1.094728   2.127839   3.117693   3.526708   4.210988
    16  H    1.094045   2.162695   2.744037   2.880955   2.962915
    17  H    2.135184   1.085756   2.229297   2.226267   3.541819
    18  H    3.479788   2.232336   1.084513   2.231902   3.504255
    19  H    2.805825   2.242890   1.084205   2.240718   2.823904
    20  H    3.518531   2.222989   2.228939   1.087284   2.163327
    21  H    2.844400   2.814439   2.750964   2.143100   1.097327
    22  H    3.929620   4.492708   5.153904   4.153365   3.046920
    23  H    7.354696   7.085092   7.700766   6.194789   5.426233
    24  H    6.683932   6.491936   7.403082   5.933578   5.495842
    25  H    6.801922   6.243921   6.863742   5.365757   5.006858
    26  H    5.078831   4.240502   3.835379   2.739293   2.017765
    27  H    6.280896   5.772971   5.067886   4.428633   3.311054
    28  H    5.224448   4.965355   4.237705   3.902343   2.779186
                    6          7          8          9         10
     6  C    0.000000
     7  N    1.347993   0.000000
     8  N    2.087948   1.347740   0.000000
     9  N    2.251413   2.308865   1.347161   0.000000
    10  C    1.408089   2.243892   2.075523   1.336077   0.000000
    11  C    3.480404   2.431861   1.441398   2.424678   3.464665
    12  N    2.443901   3.005707   4.161550   4.542589   3.612560
    13  N    3.093160   3.811287   4.680524   4.789334   3.832588
    14  H    3.439290   4.304566   4.684000   4.334690   3.477400
    15  H    4.804043   5.712394   6.308534   6.041932   5.059412
    16  H    3.675988   4.841267   5.458397   5.064895   3.870979
    17  H    4.104826   4.528368   5.397469   5.665900   4.901866
    18  H    4.743143   5.258230   6.464783   6.855760   5.865617
    19  H    4.233995   5.157929   6.240418   6.309395   5.107983
    20  H    2.799202   2.889582   4.137931   4.799434   4.101978
    21  H    2.138881   3.386661   4.207298   4.028043   2.743722
    22  H    2.255807   3.296802   3.111973   2.099221   1.080742
    23  H    4.023611   3.086109   2.063203   2.749151   3.856645
    24  H    4.067235   3.163471   2.066060   2.670911   3.835424
    25  H    3.790883   2.512079   2.078776   3.316055   4.139206
    26  H    2.429236   2.492533   3.697956   4.351809   3.692873
    27  H    3.888387   4.362834   5.230390   5.472091   4.662653
    28  H    3.712132   4.623093   5.485747   5.442108   4.338793
                   11         12         13         14         15
    11  C    0.000000
    12  N    5.322361   0.000000
    13  N    5.858603   1.459634   0.000000
    14  H    5.885092   4.826914   5.587848   0.000000
    15  H    7.520405   5.509006   6.303129   1.770714   0.000000
    16  H    6.823542   4.231844   4.762184   1.774609   1.766271
    17  H    6.397611   4.623842   5.848946   2.526799   2.417514
    18  H    7.549177   3.845377   5.028688   4.330189   3.803281
    19  H    7.532566   3.314099   4.094584   3.767799   3.267244
    20  H    5.098424   2.650514   4.079658   3.782436   4.333328
    21  H    5.617058   2.119672   2.513931   3.148507   3.846959
    22  H    4.444549   4.094983   4.072272   3.402916   4.886703
    23  H    1.092536   5.691177   5.990228   6.698085   8.354729
    24  H    1.092686   6.144894   6.725289   5.880658   7.562722
    25  H    1.092854   5.290591   6.002687   6.230556   7.746701
    26  H    4.670555   1.030109   2.071451   5.243783   6.091296
    27  H    6.255294   2.051707   1.024910   6.568411   7.258218
    28  H    6.742477   2.051629   1.024797   5.639348   6.121046
                   16         17         18         19         20
    16  H    0.000000
    17  H    3.060286   0.000000
    18  H    3.753717   2.521751   0.000000
    19  H    2.538748   3.125984   1.815710   0.000000
    20  H    3.913157   2.480953   2.507776   3.117689   0.000000
    21  H    2.289801   3.842214   3.767379   2.559433   3.059340
    22  H    3.561863   5.242870   6.180880   5.147737   4.775853
    23  H    7.498080   7.345059   8.331465   8.190108   5.896933
    24  H    7.046366   6.544642   8.013832   8.022082   5.624408
    25  H    7.151787   6.304116   7.319090   7.543367   4.814649
    26  H    4.952917   4.881486   4.299221   4.121515   2.593121
    27  H    5.754432   6.646392   5.611578   4.838781   4.667974
    28  H    4.519110   5.968094   4.945210   3.741003   4.498612
                   21         22         23         24         25
    21  H    0.000000
    22  H    2.755025   0.000000
    23  H    6.101096   4.750137   0.000000
    24  H    6.158622   4.712462   1.796950   0.000000
    25  H    5.892080   5.188507   1.791450   1.789222   0.000000
    26  H    2.909380   4.397599   5.022843   5.569114   4.501550
    27  H    3.517912   4.972537   6.276074   7.207649   6.305307
    28  H    2.495858   4.356158   6.907161   7.550129   6.928044
                   26         27         28
    26  H    0.000000
    27  H    2.345650   0.000000
    28  H    2.903612   1.619725   0.000000
 Stoichiometry    C8H15N5
 Framework group  C1[X(C8H15N5)]
 Deg. of freedom    78
 Full point group                 C1      NOp   1
 Largest Abelian subgroup         C1      NOp   1
 Largest concise Abelian subgroup C1      NOp   1
                         Standard orientation:                         
 ---------------------------------------------------------------------
 Center     Atomic      Atomic             Coordinates (Angstroms)
 Number     Number       Type             X           Y           Z
 ---------------------------------------------------------------------
      1          6           0       -2.344939   -2.050746    0.908803
      2          6           0       -2.380544   -1.478562   -0.466774
      3          6           0       -3.160741   -0.220246   -0.745392
      4          6           0       -1.650815   -0.203127   -0.851556
      5          6           0       -0.814999    0.601842    0.122921
      6          6           0        0.603287    0.112353    0.245895
      7          7           0        1.453267    0.064961   -0.799271
      8          7           0        2.567290   -0.422956   -0.218500
      9          7           0        2.521987   -0.699679    1.099155
     10          6           0        1.268905   -0.346095    1.398932
     11          6           0        3.774988   -0.636774   -0.975717
     12          7           0       -0.813371    1.997379   -0.396298
     13          7           0       -0.552706    2.948364    0.679905
     14          1           0       -1.392451   -2.561494    1.080333
     15          1           0       -3.148182   -2.785086    1.027022
     16          1           0       -2.473901   -1.291402    1.685784
     17          1           0       -2.407290   -2.265204   -1.214669
     18          1           0       -3.727537   -0.165123   -1.668361
     19          1           0       -3.623090    0.306234    0.081986
     20          1           0       -1.226555   -0.178494   -1.852347
     21          1           0       -1.295555    0.585389    1.109289
     22          1           0        0.906255   -0.435562    2.413074
     23          1           0        4.533762    0.060736   -0.613258
     24          1           0        4.098615   -1.669674   -0.826232
     25          1           0        3.576435   -0.458802   -2.035544
     26          1           0       -0.066268    2.016915   -1.105226
     27          1           0       -0.365286    3.877906    0.290974
     28          1           0       -1.395072    3.075314    1.249564
 ---------------------------------------------------------------------
 Rotational constants (GHZ):           1.1080541           0.5329310           0.4391577
 Standard basis: 6-31G(d) (6D, 7F)
 There are   225 symmetry adapted cartesian basis functions of A   symmetry.
 There are   225 symmetry adapted basis functions of A   symmetry.
   225 basis functions,   424 primitive gaussians,   225 cartesian basis functions
    49 alpha electrons       49 beta electrons
       nuclear repulsion energy       820.9268541799 Hartrees.
 NAtoms=   28 NActive=   28 NUniq=   28 SFac= 1.00D+00 NAtFMM=   60 NAOKFM=F Big=F
 Integral buffers will be    131072 words long.
 Raffenetti 2 integral format.
 Two-electron integral symmetry is turned on.
 Nuclear repulsion after empirical dispersion term =      820.8798037649 Hartrees.
 One-electron integrals computed using PRISM.
 NBasis=   225 RedAO= T EigKep=  1.04D-03  NBF=   225
 NBsUse=   225 1.00D-06 EigRej= -1.00D+00 NBFU=   225
 ExpMin= 1.61D-01 ExpMax= 4.17D+03 ExpMxC= 6.27D+02 IAcc=3 IRadAn=         5 AccDes= 0.00D+00
 Harris functional with IExCor=  402 and IRadAn=       5 diagonalized for initial guess.
 HarFok:  IExCor=  402 AccDes= 0.00D+00 IRadAn=         5 IDoV= 1 UseB2=F ITyADJ=14
 ICtDFT=  3500011 ScaDFX=  1.000000  1.000000  1.000000  1.000000
 FoFCou: FMM=F IPFlag=           0 FMFlag=      100000 FMFlg1=           0
         NFxFlg=           0 DoJE=T BraDBF=F KetDBF=T FulRan=T
         wScrn=  0.000000 ICntrl=       500 IOpCl=  0 I1Cent=   200000004 NGrid=           0
         NMat0=    1 NMatS0=      1 NMatT0=    0 NMatD0=    1 NMtDS0=    0 NMtDT0=    0
 Petite list used in FoFCou.
 Keep R1 ints in memory in canonical form, NReq=329001168.
 Requested convergence on RMS density matrix=1.00D-08 within  32 cycles.
 Requested convergence on MAX density matrix=1.00D-06.
 Requested convergence on             energy=1.00D-06.
 No special actions if energy rises.
 Integral accuracy reduced to 1.0D-05 until final iterations.
 Initial convergence to 1.0D-05 achieved.  Increase integral accuracy.
 SCF Done:  E(RB3LYP) =  -587.562622512     A.U. after   14 cycles
            NFock= 14  Conv=0.96D-08     -V/T= 2.0096
 QCSCF skips out because SCF is already converged.

 **********************************************************************

            Population analysis using the SCF density.

 **********************************************************************

 Orbital symmetries:
       Occupied  (A) (A) (A) (A) (A) (A) (A) (A) (A) (A) (A) (A)
                 (A) (A) (A) (A) (A) (A) (A) (A) (A) (A) (A) (A)
                 (A) (A) (A) (A) (A) (A) (A) (A) (A) (A) (A) (A)
                 (A) (A) (A) (A) (A) (A) (A) (A) (A) (A) (A) (A)
                 (A)
       Virtual   (A) (A) (A) (A) (A) (A) (A) (A) (A) (A) (A) (A)
                 (A) (A) (A) (A) (A) (A) (A) (A) (A) (A) (A) (A)
                 (A) (A) (A) (A) (A) (A) (A) (A) (A) (A) (A) (A)
                 (A) (A) (A) (A) (A) (A) (A) (A) (A) (A) (A) (A)
                 (A) (A) (A) (A) (A) (A) (A) (A) (A) (A) (A) (A)
                 (A) (A) (A) (A) (A) (A) (A) (A) (A) (A) (A) (A)
                 (A) (A) (A) (A) (A) (A) (A) (A) (A) (A) (A) (A)
                 (A) (A) (A) (A) (A) (A) (A) (A) (A) (A) (A) (A)
                 (A) (A) (A) (A) (A) (A) (A) (A) (A) (A) (A) (A)
                 (A) (A) (A) (A) (A) (A) (A) (A) (A) (A) (A) (A)
                 (A) (A) (A) (A) (A) (A) (A) (A) (A) (A) (A) (A)
                 (A) (A) (A) (A) (A) (A) (A) (A) (A) (A) (A) (A)
                 (A) (A) (A) (A) (A) (A) (A) (A) (A) (A) (A) (A)
                 (A) (A) (A) (A) (A) (A) (A) (A) (A) (A) (A) (A)
                 (A) (A) (A) (A) (A) (A) (A) (A)
 The electronic state is 1-A.
 Alpha  occ. eigenvalues --  -14.43795 -14.36288 -14.36210 -14.33221 -14.33160
 Alpha  occ. eigenvalues --  -10.22969 -10.21788 -10.20814 -10.20483 -10.18436
 Alpha  occ. eigenvalues --  -10.18235 -10.17470 -10.17208  -1.08936  -0.94047
 Alpha  occ. eigenvalues --   -0.88426  -0.85792  -0.84543  -0.78310  -0.70940
 Alpha  occ. eigenvalues --   -0.70881  -0.66123  -0.60915  -0.59022  -0.57254
 Alpha  occ. eigenvalues --   -0.54075  -0.52011  -0.49348  -0.49082  -0.48608
 Alpha  occ. eigenvalues --   -0.45842  -0.44495  -0.43468  -0.41878  -0.40940
 Alpha  occ. eigenvalues --   -0.40594  -0.40337  -0.38593  -0.38526  -0.35703
 Alpha  occ. eigenvalues --   -0.34308  -0.32957  -0.30720  -0.29619  -0.28284
 Alpha  occ. eigenvalues --   -0.27354  -0.26598  -0.24293  -0.17223
 Alpha virt. eigenvalues --   -0.00609   0.06140   0.08585   0.09526   0.10008
 Alpha virt. eigenvalues --    0.11061   0.11227   0.13476   0.13953   0.14682
 Alpha virt. eigenvalues --    0.15097   0.15821   0.16394   0.16887   0.17532
 Alpha virt. eigenvalues --    0.18116   0.18673   0.19168   0.20850   0.22780
 Alpha virt. eigenvalues --    0.23797   0.25201   0.26097   0.28061   0.28207
 Alpha virt. eigenvalues --    0.29634   0.30036   0.31161   0.35270   0.40884
 Alpha virt. eigenvalues --    0.46114   0.49525   0.49958   0.50089   0.52558
 Alpha virt. eigenvalues --    0.53802   0.53919   0.55751   0.56868   0.58830
 Alpha virt. eigenvalues --    0.60615   0.61977   0.62819   0.63421   0.64293
 Alpha virt. eigenvalues --    0.64784   0.66138   0.68066   0.68692   0.71277
 Alpha virt. eigenvalues --    0.71807   0.72836   0.74408   0.75013   0.75293
 Alpha virt. eigenvalues --    0.76986   0.78374   0.79947   0.81623   0.81883
 Alpha virt. eigenvalues --    0.83004   0.84311   0.84477   0.86146   0.86976
 Alpha virt. eigenvalues --    0.87988   0.89175   0.89392   0.89789   0.91104
 Alpha virt. eigenvalues --    0.92059   0.92745   0.94279   0.94506   0.94912
 Alpha virt. eigenvalues --    0.95348   0.96885   0.98879   0.99418   1.00053
 Alpha virt. eigenvalues --    1.03733   1.03787   1.05838   1.06708   1.13775
 Alpha virt. eigenvalues --    1.17139   1.20638   1.21243   1.26638   1.28402
 Alpha virt. eigenvalues --    1.32436   1.33544   1.34342   1.36919   1.38130
 Alpha virt. eigenvalues --    1.40492   1.46126   1.51451   1.52628   1.54244
 Alpha virt. eigenvalues --    1.54849   1.57467   1.63270   1.63893   1.67646
 Alpha virt. eigenvalues --    1.71307   1.74653   1.76557   1.79225   1.80444
 Alpha virt. eigenvalues --    1.82238   1.83187   1.87898   1.91294   1.93015
 Alpha virt. eigenvalues --    1.94007   1.97152   1.98407   1.99258   2.00201
 Alpha virt. eigenvalues --    2.01110   2.02158   2.04724   2.09725   2.10490
 Alpha virt. eigenvalues --    2.12920   2.13543   2.15574   2.16200   2.18452
 Alpha virt. eigenvalues --    2.21983   2.23981   2.25905   2.27097   2.27878
 Alpha virt. eigenvalues --    2.30493   2.34036   2.34151   2.36242   2.38565
 Alpha virt. eigenvalues --    2.39445   2.42613   2.43490   2.46012   2.48318
 Alpha virt. eigenvalues --    2.48531   2.53834   2.54711   2.60807   2.62465
 Alpha virt. eigenvalues --    2.65075   2.68702   2.71958   2.73690   2.75879
 Alpha virt. eigenvalues --    2.78198   2.80882   2.85890   2.90301   2.92298
 Alpha virt. eigenvalues --    3.01067   3.06672   3.17220   3.68860   3.71690
 Alpha virt. eigenvalues --    3.92619   3.99483   4.08494   4.13521   4.16159
 Alpha virt. eigenvalues --    4.29337   4.31607   4.43605   4.48778   4.59214
 Alpha virt. eigenvalues --    4.65266
          Condensed to atoms (all electrons):
               1          2          3          4          5          6
     1  C    5.053578   0.398084  -0.031060  -0.031782  -0.006571  -0.000711
     2  C    0.398084   4.980158   0.265585   0.292187  -0.032042   0.001321
     3  C   -0.031060   0.265585   5.152488   0.248676  -0.017637   0.004336
     4  C   -0.031782   0.292187   0.248676   5.020178   0.384467  -0.046803
     5  C   -0.006571  -0.032042  -0.017637   0.384467   5.001345   0.322810
     6  C   -0.000711   0.001321   0.004336  -0.046803   0.322810   4.768360
     7  N   -0.000001  -0.000285   0.000172  -0.004318  -0.065930   0.394832
     8  N    0.000001  -0.000011  -0.000001  -0.000020   0.006542  -0.105248
     9  N   -0.000005   0.000003   0.000001  -0.000113   0.005193  -0.023521
    10  C   -0.000026  -0.000244  -0.000025   0.003214  -0.042276   0.510082
    11  C   -0.000000   0.000000  -0.000000  -0.000002  -0.000279   0.007543
    12  N    0.000104   0.005292  -0.001375  -0.059678   0.286734  -0.067473
    13  N    0.000001  -0.000093   0.000019   0.005016  -0.057809   0.005905
    14  H    0.371819  -0.037587   0.005799  -0.005926   0.000622   0.000479
    15  H    0.370653  -0.031287  -0.003764   0.004786   0.000147   0.000027
    16  H    0.374668  -0.036014  -0.004958  -0.003157   0.000305   0.000238
    17  H   -0.045927   0.371360  -0.024709  -0.023011   0.002167   0.000221
    18  H    0.002801  -0.020007   0.368809  -0.013207   0.001200  -0.000087
    19  H   -0.006356  -0.023944   0.380151  -0.026972  -0.004535   0.000292
    20  H    0.002732  -0.027534  -0.023018   0.366651  -0.027567  -0.011458
    21  H    0.001963  -0.004903  -0.002772  -0.044511   0.373282  -0.042219
    22  H    0.000090  -0.000036  -0.000000  -0.000061  -0.002042  -0.039852
    23  H    0.000000   0.000000  -0.000000   0.000000   0.000009  -0.000003
    24  H   -0.000000   0.000000   0.000000  -0.000000   0.000005  -0.000164
    25  H   -0.000000   0.000000   0.000000   0.000001  -0.000013   0.000096
    26  H    0.000002  -0.000339  -0.000056   0.000778  -0.043006  -0.009814
    27  H   -0.000000   0.000003  -0.000006  -0.000339   0.005835  -0.000259
    28  H   -0.000003  -0.000025   0.000048  -0.000382  -0.002135  -0.000277
               7          8          9         10         11         12
     1  C   -0.000001   0.000001  -0.000005  -0.000026  -0.000000   0.000104
     2  C   -0.000285  -0.000011   0.000003  -0.000244   0.000000   0.005292
     3  C    0.000172  -0.000001   0.000001  -0.000025  -0.000000  -0.001375
     4  C   -0.004318  -0.000020  -0.000113   0.003214  -0.000002  -0.059678
     5  C   -0.065930   0.006542   0.005193  -0.042276  -0.000279   0.286734
     6  C    0.394832  -0.105248  -0.023521   0.510082   0.007543  -0.067473
     7  N    6.941985   0.266622  -0.091474  -0.053495  -0.058149  -0.010273
     8  N    0.266622   6.560739   0.255069  -0.128227   0.291961   0.000379
     9  N   -0.091474   0.255069   6.812918   0.410874  -0.058728  -0.000177
    10  C   -0.053495  -0.128227   0.410874   4.949507   0.009598   0.002561
    11  C   -0.058149   0.291961  -0.058728   0.009598   4.986665   0.000005
    12  N   -0.010273   0.000379  -0.000177   0.002561   0.000005   6.937587
    13  N    0.000183  -0.000045   0.000015   0.000375  -0.000001   0.177305
    14  H   -0.000004  -0.000024  -0.000005   0.001543  -0.000000  -0.000006
    15  H    0.000000  -0.000000   0.000000   0.000007   0.000000   0.000001
    16  H    0.000002   0.000000   0.000000   0.000013   0.000000  -0.000042
    17  H   -0.000003   0.000001  -0.000000   0.000002   0.000000  -0.000083
    18  H   -0.000003  -0.000000  -0.000000   0.000001   0.000000  -0.000036
    19  H   -0.000000   0.000000   0.000000  -0.000006   0.000000   0.001362
    20  H    0.005780  -0.000105   0.000025  -0.000062   0.000000  -0.004756
    21  H    0.003672  -0.000128   0.000074  -0.005347   0.000004  -0.037866
    22  H    0.005249   0.006847  -0.047074   0.370035  -0.000262  -0.000028
    23  H    0.001728  -0.042732   0.001140   0.000229   0.376231  -0.000001
    24  H    0.002373  -0.039174   0.002217   0.000275   0.375030   0.000000
    25  H    0.007387  -0.029736   0.003998  -0.000329   0.370207   0.000001
    26  H    0.013896  -0.000522   0.000064   0.000714   0.000010   0.297729
    27  H   -0.000003   0.000001   0.000000  -0.000023   0.000000  -0.027965
    28  H   -0.000006   0.000001  -0.000001   0.000030   0.000000  -0.042688
              13         14         15         16         17         18
     1  C    0.000001   0.371819   0.370653   0.374668  -0.045927   0.002801
     2  C   -0.000093  -0.037587  -0.031287  -0.036014   0.371360  -0.020007
     3  C    0.000019   0.005799  -0.003764  -0.004958  -0.024709   0.368809
     4  C    0.005016  -0.005926   0.004786  -0.003157  -0.023011  -0.013207
     5  C   -0.057809   0.000622   0.000147   0.000305   0.002167   0.001200
     6  C    0.005905   0.000479   0.000027   0.000238   0.000221  -0.000087
     7  N    0.000183  -0.000004   0.000000   0.000002  -0.000003  -0.000003
     8  N   -0.000045  -0.000024  -0.000000   0.000000   0.000001  -0.000000
     9  N    0.000015  -0.000005   0.000000   0.000000  -0.000000  -0.000000
    10  C    0.000375   0.001543   0.000007   0.000013   0.000002   0.000001
    11  C   -0.000001  -0.000000   0.000000   0.000000   0.000000   0.000000
    12  N    0.177305  -0.000006   0.000001  -0.000042  -0.000083  -0.000036
    13  N    6.893937   0.000001  -0.000000  -0.000004   0.000001   0.000001
    14  H    0.000001   0.577768  -0.032330  -0.031961  -0.001867  -0.000145
    15  H   -0.000000  -0.032330   0.579395  -0.030195  -0.004826   0.000136
    16  H   -0.000004  -0.031961  -0.030195   0.582763   0.005536  -0.000023
    17  H    0.000001  -0.001867  -0.004826   0.005536   0.596558  -0.006289
    18  H    0.000001  -0.000145   0.000136  -0.000023  -0.006289   0.559332
    19  H   -0.000098   0.000068   0.000667   0.003460   0.002541  -0.032672
    20  H   -0.000039   0.000273  -0.000103  -0.000111  -0.006650  -0.005732
    21  H   -0.002657   0.000374  -0.000109   0.003206  -0.000044  -0.000096
    22  H   -0.000016   0.000168  -0.000001   0.000122   0.000001  -0.000000
    23  H    0.000000  -0.000000  -0.000000   0.000000   0.000000   0.000000
    24  H   -0.000000   0.000000   0.000000  -0.000000  -0.000000  -0.000000
    25  H   -0.000000   0.000000   0.000000  -0.000000  -0.000000   0.000000
    26  H   -0.028563   0.000001  -0.000000   0.000000   0.000006   0.000007
    27  H    0.305511  -0.000000   0.000000  -0.000000  -0.000000   0.000000
    28  H    0.304965  -0.000000   0.000000   0.000003   0.000000   0.000001
              19         20         21         22         23         24
     1  C   -0.006356   0.002732   0.001963   0.000090   0.000000  -0.000000
     2  C   -0.023944  -0.027534  -0.004903  -0.000036   0.000000   0.000000
     3  C    0.380151  -0.023018  -0.002772  -0.000000  -0.000000   0.000000
     4  C   -0.026972   0.366651  -0.044511  -0.000061   0.000000  -0.000000
     5  C   -0.004535  -0.027567   0.373282  -0.002042   0.000009   0.000005
     6  C    0.000292  -0.011458  -0.042219  -0.039852  -0.000003  -0.000164
     7  N   -0.000000   0.005780   0.003672   0.005249   0.001728   0.002373
     8  N    0.000000  -0.000105  -0.000128   0.006847  -0.042732  -0.039174
     9  N    0.000000   0.000025   0.000074  -0.047074   0.001140   0.002217
    10  C   -0.000006  -0.000062  -0.005347   0.370035   0.000229   0.000275
    11  C    0.000000   0.000000   0.000004  -0.000262   0.376231   0.375030
    12  N    0.001362  -0.004756  -0.037866  -0.000028  -0.000001   0.000000
    13  N   -0.000098  -0.000039  -0.002657  -0.000016   0.000000  -0.000000
    14  H    0.000068   0.000273   0.000374   0.000168  -0.000000   0.000000
    15  H    0.000667  -0.000103  -0.000109  -0.000001  -0.000000   0.000000
    16  H    0.003460  -0.000111   0.003206   0.000122   0.000000  -0.000000
    17  H    0.002541  -0.006650  -0.000044   0.000001   0.000000  -0.000000
    18  H   -0.032672  -0.005732  -0.000096  -0.000000   0.000000  -0.000000
    19  H    0.559501   0.002308   0.002562   0.000000  -0.000000   0.000000
    20  H    0.002308   0.579141   0.005633  -0.000006  -0.000000  -0.000000
    21  H    0.002562   0.005633   0.607045   0.002348  -0.000000  -0.000000
    22  H    0.000000  -0.000006   0.002348   0.556257  -0.000002  -0.000005
    23  H   -0.000000  -0.000000  -0.000000  -0.000002   0.539411  -0.032736
    24  H    0.000000  -0.000000  -0.000000  -0.000005  -0.032736   0.531860
    25  H   -0.000000   0.000004   0.000000   0.000003  -0.025234  -0.023122
    26  H   -0.000031   0.003481   0.005934  -0.000014   0.000000  -0.000000
    27  H    0.000006   0.000010   0.000036   0.000000  -0.000000  -0.000000
    28  H    0.000057   0.000013   0.003975   0.000006   0.000000  -0.000000
              25         26         27         28
     1  C   -0.000000   0.000002  -0.000000  -0.000003
     2  C    0.000000  -0.000339   0.000003  -0.000025
     3  C    0.000000  -0.000056  -0.000006   0.000048
     4  C    0.000001   0.000778  -0.000339  -0.000382
     5  C   -0.000013  -0.043006   0.005835  -0.002135
     6  C    0.000096  -0.009814  -0.000259  -0.000277
     7  N    0.007387   0.013896  -0.000003  -0.000006
     8  N   -0.029736  -0.000522   0.000001   0.000001
     9  N    0.003998   0.000064   0.000000  -0.000001
    10  C   -0.000329   0.000714  -0.000023   0.000030
    11  C    0.370207   0.000010   0.000000   0.000000
    12  N    0.000001   0.297729  -0.027965  -0.042688
    13  N   -0.000000  -0.028563   0.305511   0.304965
    14  H    0.000000   0.000001  -0.000000  -0.000000
    15  H    0.000000  -0.000000   0.000000   0.000000
    16  H   -0.000000   0.000000  -0.000000   0.000003
    17  H   -0.000000   0.000006  -0.000000   0.000000
    18  H    0.000000   0.000007   0.000000   0.000001
    19  H   -0.000000  -0.000031   0.000006   0.000057
    20  H    0.000004   0.003481   0.000010   0.000013
    21  H    0.000000   0.005934   0.000036   0.003975
    22  H    0.000003  -0.000014   0.000000   0.000006
    23  H   -0.025234   0.000000  -0.000000   0.000000
    24  H   -0.023122  -0.000000  -0.000000  -0.000000
    25  H    0.508292   0.000012   0.000000   0.000000
    26  H    0.000012   0.445448  -0.005629   0.004738
    27  H    0.000000  -0.005629   0.454129  -0.035199
    28  H    0.000000   0.004738  -0.035199   0.460705
 Mulliken charges:
               1
     1  C   -0.454051
     2  C   -0.099641
     3  C   -0.316701
     4  C   -0.065670
     5  C   -0.088822
     6  C    0.331349
     7  N   -0.359936
     8  N   -0.042191
     9  N   -0.270493
    10  C   -0.029002
    11  C   -0.299832
    12  N   -0.456613
    13  N   -0.603909
    14  H    0.150942
    15  H    0.146797
    16  H    0.136150
    17  H    0.135016
    18  H    0.146009
    19  H    0.141639
    20  H    0.141092
    21  H    0.130545
    22  H    0.148271
    23  H    0.181959
    24  H    0.183442
    25  H    0.188432
    26  H    0.315154
    27  H    0.303892
    28  H    0.306174
 Sum of Mulliken charges =  -0.00000
 Mulliken charges with hydrogens summed into heavy atoms:
               1
     1  C   -0.020162
     2  C    0.035375
     3  C   -0.029053
     4  C    0.075421
     5  C    0.041723
     6  C    0.331349
     7  N   -0.359936
     8  N   -0.042191
     9  N   -0.270493
    10  C    0.119269
    11  C    0.254001
    12  N   -0.141459
    13  N    0.006156
 Electronic spatial extent (au):  <R**2>=           2780.6965
 Charge=             -0.0000 electrons
 Dipole moment (field-independent basis, Debye):
    X=              0.0582    Y=              0.3090    Z=             -0.6361  Tot=              0.7096
 Quadrupole moment (field-independent basis, Debye-Ang):
   XX=            -72.7473   YY=            -73.0669   ZZ=            -76.7773
   XY=             -0.8631   XZ=             -8.8832   YZ=              2.0429
 Traceless Quadrupole moment (field-independent basis, Debye-Ang):
   XX=              1.4499   YY=              1.1303   ZZ=             -2.5801
   XY=             -0.8631   XZ=             -8.8832   YZ=              2.0429
 Octapole moment (field-independent basis, Debye-Ang**2):
  XXX=             41.0866  YYY=             39.7906  ZZZ=             -0.9244  XYY=             -3.0100
  XXY=              0.7629  XXZ=            -20.9922  XZZ=             -3.7004  YZZ=              2.3366
  YYZ=             -2.3770  XYZ=             -4.1860
 Hexadecapole moment (field-independent basis, Debye-Ang**3):
 XXXX=          -2162.9606 YYYY=           -776.9579 ZZZZ=           -418.1861 XXXY=            -29.5870
 XXXZ=           -101.2240 YYYX=            -34.3581 YYYZ=             18.4834 ZZZX=            -11.5664
 ZZZY=              5.8221 XXYY=           -531.9928 XXZZ=           -450.6374 YYZZ=           -234.9426
 XXYZ=             39.3736 YYXZ=            -32.1607 ZZXY=             -6.9893
 N-N= 8.208798037649D+02 E-N=-3.006651788090D+03  KE= 5.819584368191D+02
 Calling FoFJK, ICntrl=      2127 FMM=F ISym2X=0 I1Cent= 0 IOpClX= 0 NMat=1 NMatS=1 NMatT=0.
 ***** Axes restored to original set *****
 -------------------------------------------------------------------
 Center     Atomic                   Forces (Hartrees/Bohr)
 Number     Number              X              Y              Z
 -------------------------------------------------------------------
      1        6           0.004265771   -0.006378858    0.008335740
      2        6           0.001504811    0.002466914   -0.007301283
      3        6          -0.005970560   -0.002762137   -0.008282417
      4        6          -0.004597662   -0.000031496    0.005949177
      5        6           0.003872236    0.000408326   -0.013749287
      6        6          -0.000169544    0.003217468    0.011971638
      7        7           0.013173586   -0.010636513    0.022388710
      8        7          -0.005580140   -0.004030483   -0.004599054
      9        7          -0.009827151    0.014797498   -0.018742992
     10        6           0.000789385    0.001857862    0.004518283
     11        6          -0.000004562   -0.003648831   -0.001369999
     12        7          -0.008415848    0.024837523    0.005559859
     13        7           0.015597253   -0.023517933   -0.002743641
     14        1           0.001450463   -0.002145826    0.002823332
     15        1           0.000781496    0.000314920    0.002094264
     16        1           0.001037842   -0.000522257    0.000409390
     17        1          -0.002547529    0.002094609   -0.005573522
     18        1           0.000207823    0.002004400   -0.001244274
     19        1           0.002217280   -0.000746873    0.002206764
     20        1          -0.002329981    0.001286398    0.000274456
     21        1           0.001602418   -0.001371959   -0.004200329
     22        1          -0.000512999    0.001786213    0.000135853
     23        1          -0.001946215   -0.004129259   -0.001970930
     24        1           0.000792175   -0.002513150   -0.002226194
     25        1           0.002095662    0.001399531    0.002698933
     26        1           0.016345549    0.002549639    0.004635101
     27        1          -0.010289921    0.000466432    0.001609314
     28        1          -0.013541636    0.002947842   -0.003606891
 -------------------------------------------------------------------
 Cartesian Forces:  Max     0.024837523 RMS     0.007378347

 GradGradGradGradGradGradGradGradGradGradGradGradGradGradGradGradGradGrad
 Berny optimization.
 FormGI is forming the generalized inverse of G from B-inverse, IUseBI=4.
 Internal  Forces:  Max     0.021654453 RMS     0.005298915
 Search for a local minimum.
 Step number   1 out of a maximum of  153
 All quantities printed in internal units (Hartrees-Bohrs-Radians)
 Mixed Optimization -- RFO/linear search
 Second derivative matrix not updated -- first step.
 ITU=  0
     Eigenvalues ---    0.00506   0.00515   0.00563   0.00694   0.00895
     Eigenvalues ---    0.01144   0.01353   0.01541   0.01802   0.02055
     Eigenvalues ---    0.02090   0.02157   0.02189   0.02507   0.03060
     Eigenvalues ---    0.03269   0.03746   0.04082   0.04745   0.05320
     Eigenvalues ---    0.05489   0.05737   0.06041   0.06417   0.07841
     Eigenvalues ---    0.07938   0.09334   0.10023   0.10959   0.11193
     Eigenvalues ---    0.15228   0.15396   0.16000   0.16000   0.16000
     Eigenvalues ---    0.16000   0.16000   0.16000   0.16000   0.16000
     Eigenvalues ---    0.16000   0.16739   0.17610   0.18274   0.23570
     Eigenvalues ---    0.23654   0.24999   0.24999   0.25000   0.25339
     Eigenvalues ---    0.26661   0.30823   0.31078   0.31816   0.33421
     Eigenvalues ---    0.33560   0.33979   0.34272   0.34319   0.34349
     Eigenvalues ---    0.34485   0.34504   0.34521   0.35128   0.35308
     Eigenvalues ---    0.35455   0.35491   0.35905   0.37010   0.39394
     Eigenvalues ---    0.41183   0.42764   0.43564   0.43581   0.51052
     Eigenvalues ---    0.51604   0.55542   0.57165
 RFO step:  Lambda=-2.17462654D-02 EMin= 5.05967677D-03
 Linear search not attempted -- first point.
 Iteration  1 RMS(Cart)=  0.06516109 RMS(Int)=  0.00316213
 Iteration  2 RMS(Cart)=  0.00412708 RMS(Int)=  0.00181481
 Iteration  3 RMS(Cart)=  0.00000963 RMS(Int)=  0.00181479
 Iteration  4 RMS(Cart)=  0.00000007 RMS(Int)=  0.00181479
 Variable       Old X    -DE/DX   Delta X   Delta X   Delta X     New X
                                 (Linear)    (Quad)   (Total)
    R1        2.81618   0.01749   0.00000   0.04915   0.04915   2.86533
    R2        2.06795   0.00219   0.00000   0.00600   0.00600   2.07395
    R3        2.06874   0.00128   0.00000   0.00351   0.00351   2.07225
    R4        2.06745   0.00091   0.00000   0.00250   0.00250   2.06995
    R5        2.84697   0.00214   0.00000   0.00997   0.00996   2.85693
    R6        2.87045  -0.00497   0.00000  -0.01516  -0.01528   2.85517
    R7        2.05178   0.00252   0.00000   0.00673   0.00673   2.05852
    R8        2.86057  -0.00411   0.00000  -0.01620  -0.01607   2.84451
    R9        2.04943   0.00168   0.00000   0.00447   0.00447   2.05391
   R10        2.04885   0.00234   0.00000   0.00622   0.00622   2.05507
   R11        2.86352   0.00185   0.00000   0.00561   0.00561   2.86913
   R12        2.05467   0.00079   0.00000   0.00212   0.00212   2.05679
   R13        2.84481   0.00048   0.00000   0.00140   0.00140   2.84621
   R14        2.81380  -0.00143   0.00000  -0.00400  -0.00400   2.80980
   R15        2.07365  -0.00292   0.00000  -0.00809  -0.00809   2.06556
   R16        2.54734  -0.00367   0.00000  -0.00640  -0.00640   2.54094
   R17        2.66090  -0.00643   0.00000  -0.01165  -0.01177   2.64914
   R18        2.54686  -0.00879   0.00000  -0.01707  -0.01695   2.52991
   R19        2.54577  -0.01299   0.00000  -0.02364  -0.02356   2.52220
   R20        2.72385   0.00794   0.00000   0.01910   0.01910   2.74295
   R21        2.52482   0.00655   0.00000   0.01202   0.01194   2.53676
   R22        2.04231   0.00006   0.00000   0.00015   0.00015   2.04245
   R23        2.06459   0.00104   0.00000   0.00282   0.00282   2.06742
   R24        2.06488   0.00004   0.00000   0.00010   0.00010   2.06498
   R25        2.06519  -0.00260   0.00000  -0.00710  -0.00710   2.05809
   R26        2.75831  -0.00793   0.00000  -0.02024  -0.02024   2.73807
   R27        1.94662  -0.01030   0.00000  -0.02292  -0.02292   1.92371
   R28        1.93680  -0.00559   0.00000  -0.01222  -0.01222   1.92458
   R29        1.93659  -0.00456   0.00000  -0.00996  -0.00996   1.92662
    A1        1.92269   0.00415   0.00000   0.02433   0.02423   1.94692
    A2        1.91739   0.00174   0.00000   0.01024   0.01012   1.92751
    A3        1.96734  -0.00059   0.00000  -0.00540  -0.00537   1.96197
    A4        1.88456  -0.00213   0.00000  -0.00732  -0.00757   1.87699
    A5        1.89149  -0.00224   0.00000  -0.01361  -0.01357   1.87792
    A6        1.87800  -0.00119   0.00000  -0.00946  -0.00943   1.86857
    A7        2.09875   0.00264   0.00000   0.01562   0.01553   2.11428
    A8        2.14687  -0.00119   0.00000  -0.01611  -0.01585   2.13102
    A9        1.93717   0.00340   0.00000   0.02812   0.02804   1.96521
   A10        2.05442  -0.00439   0.00000  -0.02690  -0.02713   2.02729
   A11        2.03274  -0.00203   0.00000  -0.01535  -0.01550   2.01724
   A12        2.06065   0.00407   0.00000   0.01841   0.01837   2.07902
   A13        2.07749  -0.00354   0.00000  -0.01765  -0.01762   2.05988
   A14        2.04997   0.00186   0.00000   0.00543   0.00555   2.05552
   A15        2.06393  -0.00145   0.00000  -0.00777  -0.00794   2.05599
   A16        1.98439   0.00004   0.00000   0.00280   0.00283   1.98722
   A17        2.15092  -0.00492   0.00000  -0.02212  -0.02209   2.12883
   A18        2.02600   0.00072   0.00000  -0.00106  -0.00105   2.02495
   A19        2.10725  -0.00003   0.00000   0.00025   0.00035   2.10761
   A20        2.04208  -0.00313   0.00000  -0.01277  -0.01282   2.02926
   A21        1.94407   0.00343   0.00000   0.01782   0.01777   1.96184
   A22        1.98173  -0.00786   0.00000  -0.02866  -0.03032   1.95140
   A23        1.84859   0.00374   0.00000   0.03557   0.03545   1.88404
   A24        1.90555   0.00339   0.00000   0.01112   0.01082   1.91637
   A25        1.90943   0.00780   0.00000   0.05599   0.05632   1.96575
   A26        1.91164  -0.00142   0.00000  -0.03157  -0.03128   1.88036
   A27        1.90496  -0.00558   0.00000  -0.04163  -0.04117   1.86379
   A28        2.14380  -0.00185   0.00000  -0.00863  -0.00856   2.13523
   A29        2.23713   0.00996   0.00000   0.03482   0.03490   2.27203
   A30        1.90222  -0.00812   0.00000  -0.02617  -0.02632   1.87590
   A31        1.77197   0.01756   0.00000   0.06008   0.06016   1.83213
   A32        2.05788  -0.01619   0.00000  -0.06387  -0.06377   1.99411
   A33        2.11752   0.00871   0.00000   0.03416   0.03409   2.15161
   A34        2.10777   0.00748   0.00000   0.02966   0.02959   2.13736
   A35        1.76872   0.01307   0.00000   0.04958   0.04949   1.81821
   A36        1.92387  -0.00630   0.00000  -0.01923  -0.01951   1.90436
   A37        2.26105   0.00130   0.00000  -0.00058  -0.00053   2.26053
   A38        2.09827   0.00501   0.00000   0.01982   0.01989   2.11815
   A39        1.88906   0.00707   0.00000   0.03983   0.03967   1.92873
   A40        1.89285   0.00423   0.00000   0.02370   0.02347   1.91632
   A41        1.91036  -0.00575   0.00000  -0.03298  -0.03274   1.87762
   A42        1.93095  -0.00464   0.00000  -0.02273  -0.02332   1.90763
   A43        1.92191  -0.00096   0.00000  -0.00614  -0.00583   1.91608
   A44        1.91816   0.00017   0.00000  -0.00099  -0.00082   1.91734
   A45        1.93234  -0.00758   0.00000  -0.04668  -0.04876   1.88358
   A46        1.83232   0.00788   0.00000   0.01497   0.00856   1.84087
   A47        1.94502  -0.01026   0.00000  -0.12389  -0.12569   1.81933
   A48        1.92172  -0.01328   0.00000  -0.09446  -0.09824   1.82348
   A49        1.92172  -0.02165   0.00000  -0.14052  -0.14475   1.77697
   A50        1.82234   0.00782   0.00000  -0.00226  -0.01578   1.80657
    D1       -2.60258   0.00065   0.00000   0.00497   0.00533  -2.59725
    D2       -1.34753   0.00013   0.00000  -0.00063  -0.00061  -1.34814
    D3        1.18202  -0.00011   0.00000  -0.00969  -0.00985   1.17217
    D4        1.60666  -0.00036   0.00000  -0.00730  -0.00709   1.59957
    D5        2.86170  -0.00088   0.00000  -0.01290  -0.01303   2.84867
    D6       -0.89193  -0.00112   0.00000  -0.02196  -0.02226  -0.91419
    D7       -0.48751   0.00033   0.00000   0.00117   0.00145  -0.48605
    D8        0.76754  -0.00019   0.00000  -0.00443  -0.00449   0.76305
    D9       -2.98609  -0.00042   0.00000  -0.01349  -0.01372  -2.99982
   D10       -2.43658  -0.00296   0.00000  -0.03080  -0.03062  -2.46720
   D11        0.09015  -0.00194   0.00000  -0.02362  -0.02347   0.06667
   D12        0.02046   0.00081   0.00000   0.00550   0.00523   0.02569
   D13        2.54719   0.00183   0.00000   0.01269   0.01238   2.55956
   D14        0.00507  -0.00003   0.00000  -0.00906  -0.00907  -0.00399
   D15        2.51359  -0.00002   0.00000  -0.01168  -0.01155   2.50204
   D16       -2.49400  -0.00151   0.00000  -0.01320  -0.01335  -2.50736
   D17        0.01452  -0.00150   0.00000  -0.01581  -0.01584  -0.00133
   D18        2.42062   0.00143   0.00000   0.00501   0.00498   2.42560
   D19       -0.04353  -0.00022   0.00000  -0.00975  -0.00974  -0.05327
   D20       -0.06654   0.00069   0.00000   0.00323   0.00324  -0.06330
   D21       -2.53069  -0.00096   0.00000  -0.01152  -0.01148  -2.54217
   D22        1.49238  -0.00500   0.00000  -0.05465  -0.05449   1.43789
   D23       -2.69517   0.00257   0.00000   0.02168   0.02137  -2.67380
   D24       -0.64606  -0.00024   0.00000  -0.00231  -0.00215  -0.64821
   D25        2.74293  -0.00365   0.00000  -0.05060  -0.05050   2.69243
   D26       -1.44462   0.00392   0.00000   0.02573   0.02537  -1.41926
   D27        0.60449   0.00110   0.00000   0.00174   0.00184   0.60634
   D28       -1.04188  -0.00432   0.00000  -0.04696  -0.04675  -1.08864
   D29        1.05375   0.00325   0.00000   0.02937   0.02911   1.08286
   D30        3.10287   0.00044   0.00000   0.00538   0.00559   3.10845
   D31        1.04585   0.00232   0.00000   0.02885   0.02837   1.07422
   D32       -2.10588   0.00240   0.00000   0.03087   0.03028  -2.07561
   D33       -1.01494  -0.00276   0.00000  -0.03606  -0.03596  -1.05091
   D34        2.11651  -0.00267   0.00000  -0.03403  -0.03406   2.08246
   D35       -3.10227   0.00018   0.00000  -0.00007   0.00048  -3.10179
   D36        0.02918   0.00027   0.00000   0.00195   0.00239   0.03157
   D37        2.72280   0.00892   0.00000   0.12164   0.12085   2.84365
   D38       -1.45930  -0.00267   0.00000  -0.04223  -0.04355  -1.50285
   D39       -1.41816   0.00614   0.00000   0.14028   0.14149  -1.27667
   D40        0.68293  -0.00545   0.00000  -0.02359  -0.02292   0.66001
   D41        0.67328   0.00573   0.00000   0.11031   0.11070   0.78398
   D42        2.77437  -0.00587   0.00000  -0.05356  -0.05370   2.72067
   D43        3.13948  -0.00052   0.00000  -0.01389  -0.01436   3.12512
   D44        0.00631  -0.00068   0.00000  -0.01588  -0.01619  -0.00988
   D45        3.13683   0.00112   0.00000   0.02427   0.02380  -3.12255
   D46       -0.00415   0.00025   0.00000   0.00471   0.00455   0.00040
   D47       -0.01377   0.00121   0.00000   0.02610   0.02552   0.01175
   D48        3.12843   0.00034   0.00000   0.00654   0.00627   3.13470
   D49        0.00295   0.00010   0.00000   0.00185   0.00215   0.00510
   D50       -3.13222   0.00040   0.00000   0.01106   0.01108  -3.12114
   D51       -0.01101   0.00053   0.00000   0.01314   0.01312   0.00211
   D52        3.12420   0.00023   0.00000   0.00400   0.00429   3.12849
   D53        1.98055  -0.00065   0.00000  -0.01002  -0.01047   1.97008
   D54       -2.20698   0.00029   0.00000  -0.00075  -0.00053  -2.20751
   D55       -0.11435  -0.00035   0.00000  -0.00714  -0.00716  -0.12151
   D56       -1.15444  -0.00024   0.00000  -0.00021  -0.00049  -1.15492
   D57        0.94122   0.00069   0.00000   0.00906   0.00945   0.95067
   D58        3.03384   0.00005   0.00000   0.00268   0.00282   3.03667
   D59        0.01411  -0.00086   0.00000  -0.02199  -0.02240  -0.00830
   D60       -3.12803  -0.00008   0.00000  -0.00454  -0.00502  -3.13305
   D61        2.94224   0.00330   0.00000  -0.02284  -0.02612   2.91612
   D62       -1.34081  -0.00718   0.00000  -0.15956  -0.15027  -1.49108
   D63        0.90972   0.00463   0.00000   0.06441   0.05512   0.96484
   D64        2.90986  -0.00585   0.00000  -0.07231  -0.06903   2.84083
         Item               Value     Threshold  Converged?
 Maximum Force            0.021654     0.000450     NO 
 RMS     Force            0.005299     0.000300     NO 
 Maximum Displacement     0.233675     0.001800     NO 
 RMS     Displacement     0.065337     0.001200     NO 
 Predicted change in Energy=-1.262751D-02
 GradGradGradGradGradGradGradGradGradGradGradGradGradGradGradGradGradGrad

                          Input orientation:                          
 ---------------------------------------------------------------------
 Center     Atomic      Atomic             Coordinates (Angstroms)
 Number     Number       Type             X           Y           Z
 ---------------------------------------------------------------------
      1          6           0        1.118645   -0.004051    0.026371
      2          6           0        0.521316    0.509788   -1.269097
      3          6           0        1.024283    1.782742   -1.911143
      4          6           0        1.275057    0.456509   -2.577465
      5          6           0        2.680059   -0.110892   -2.673358
      6          6           0        2.670764   -1.613364   -2.778134
      7          7           0        2.085719   -2.259389   -3.802019
      8          7           0        2.300325   -3.558366   -3.559295
      9          7           0        2.983149   -3.801192   -2.438495
     10          6           0        3.220151   -2.582728   -1.927413
     11          6           0        1.850763   -4.618587   -4.442862
     12          7           0        3.358891    0.538768   -3.825724
     13          7           0        4.784444    0.322188   -3.683338
     14          1           0        1.085606   -1.099784    0.078826
     15          1           0        0.560388    0.385020    0.886297
     16          1           0        2.162337    0.302338    0.155482
     17          1           0       -0.550836    0.329254   -1.336278
     18          1           0        0.311187    2.457226   -2.377914
     19          1           0        1.870671    2.287223   -1.450951
     20          1           0        0.679761    0.242179   -3.463077
     21          1           0        3.249378    0.157066   -1.779588
     22          1           0        3.772040   -2.456554   -1.006724
     23          1           0        2.705948   -5.123124   -4.902215
     24          1           0        1.262617   -5.346289   -3.878404
     25          1           0        1.232936   -4.163075   -5.215474
     26          1           0        3.101556   -0.015217   -4.640074
     27          1           0        5.173417    0.584885   -4.587175
     28          1           0        5.053176    1.094767   -3.074788
 ---------------------------------------------------------------------
                    Distance matrix (angstroms):
                    1          2          3          4          5
     1  C    0.000000
     2  C    1.516268   0.000000
     3  C    2.637327   1.511824   0.000000
     4  C    2.648876   1.510891   1.505247   0.000000
     5  C    3.120571   2.649031   2.628386   1.518278   0.000000
     6  C    3.586671   3.377144   3.872482   2.504524   1.506150
     7  N    4.547345   4.065882   4.587034   3.087524   2.498631
     8  N    5.185221   4.995974   5.733422   4.258448   3.579687
     9  N    4.895938   5.100261   5.941008   4.589652   3.710167
    10  C    3.857872   4.157012   4.886659   3.666459   2.637822
    11  C    6.465600   6.175796   6.933231   5.437623   4.913063
    12  N    4.489097   3.819557   3.265500   2.430490   1.486882
    13  N    5.225558   4.902858   4.405986   3.681956   2.374038
    14  H    1.097485   2.173946   3.503241   3.084448   3.330871
    15  H    1.096586   2.159356   3.161408   3.537444   4.172538
    16  H    1.095370   2.182982   2.785265   2.877505   2.905362
    17  H    2.180613   1.089319   2.219031   2.211476   3.524230
    18  H    3.534184   2.250809   1.086880   2.229739   3.506290
    19  H    2.828066   2.238996   1.087497   2.230539   2.810755
    20  H    3.525549   2.215913   2.213714   1.088404   2.179337
    21  H    2.797761   2.797738   2.758836   2.150400   1.093046
    22  H    3.757999   4.408541   5.132229   4.145852   3.077697
    23  H    7.281167   7.049955   7.711388   6.211619   5.485521
    24  H    6.618723   6.453810   7.399325   5.946853   5.556138
    25  H    6.692344   6.157593   6.805504   5.319907   4.997670
    26  H    5.070283   4.277471   3.872310   2.795171   2.013650
    27  H    6.170317   5.714658   5.080484   4.387781   3.219260
    28  H    5.128852   4.913296   4.249630   3.863792   2.691923
                    6          7          8          9         10
     6  C    0.000000
     7  N    1.344607   0.000000
     8  N    2.128490   1.338772   0.000000
     9  N    2.235962   2.245381   1.334693   0.000000
    10  C    1.401862   2.214866   2.112105   1.342396   0.000000
    11  C    3.532009   2.455952   1.451504   2.442933   3.513891
    12  N    2.490509   3.074282   4.240053   4.571743   3.656032
    13  N    3.005562   3.736541   4.609223   4.668679   3.737489
    14  H    3.307372   4.172034   4.555885   4.151527   3.283352
    15  H    4.677102   5.594626   6.192008   5.869274   4.878405
    16  H    3.540412   4.714884   5.359445   4.923556   3.712281
    17  H    4.028825   4.442114   5.308909   5.546577   4.800982
    18  H    4.722021   5.236744   6.445128   6.805207   5.836622
    19  H    4.197159   5.123031   6.229015   6.267507   5.075878
    20  H    2.806472   2.889540   4.132751   4.764894   4.097798
    21  H    2.113365   3.359105   4.227587   4.021547   2.743935
    22  H    2.249815   3.270509   3.145720   2.116688   1.080819
    23  H    4.102605   3.129871   2.101531   2.809672   3.945562
    24  H    4.138623   3.195667   2.091731   2.724131   3.908398
    25  H    3.809068   2.519745   2.061048   3.302395   4.154258
    26  H    2.491280   2.602031   3.789981   4.381161   3.736938
    27  H    3.790540   4.270859   5.145651   5.352735   4.574205
    28  H    3.619097   4.537073   5.428129   5.353531   4.266195
                   11         12         13         14         15
    11  C    0.000000
    12  N    5.408661   0.000000
    13  N    5.796086   1.448925   0.000000
    14  H    5.780407   4.806057   5.464182   0.000000
    15  H    7.423011   5.482554   6.223196   1.769889   0.000000
    16  H    6.742207   4.163850   4.648912   1.769512   1.762716
    17  H    6.316619   4.639742   5.828719   2.592801   2.485512
    18  H    7.530035   3.881383   5.125676   4.391766   3.874430
    19  H    7.526097   3.303247   4.163531   3.798468   3.286023
    20  H    5.094926   2.719782   4.111368   3.809285   4.353356
    21  H    5.644113   2.084314   2.451114   3.116935   3.793359
    22  H    4.491407   4.133934   3.988813   3.199402   4.687513
    23  H    1.094031   5.800188   5.954597   6.604811   8.273448
    24  H    1.092740   6.247482   6.676298   5.807220   7.486214
    25  H    1.089096   5.344007   5.922688   6.118420   7.639967
    26  H    4.774347   1.017982   1.965019   5.244841   6.095778
    27  H    6.175514   1.968359   1.018445   6.428053   7.160927
    28  H    6.691001   1.934850   1.019524   5.522947   6.031508
                   16         17         18         19         20
    16  H    0.000000
    17  H    3.096350   0.000000
    18  H    3.806362   2.521180   0.000000
    19  H    2.570109   3.116166   1.822129   0.000000
    20  H    3.910962   2.458704   2.493964   3.106304   0.000000
    21  H    2.224244   3.829857   3.779113   2.558594   3.073160
    22  H    3.399023   5.153309   6.164649   5.129909   4.783202
    23  H    7.437167   7.283610   8.340784   8.217186   5.912954
    24  H    6.999195   6.477871   8.003220   8.033229   5.634110
    25  H    7.046337   6.197663   7.261525   7.495644   4.773171
    26  H    4.896972   4.936973   4.360792   4.121507   2.704934
    27  H    5.624876   6.587924   5.659308   4.862302   4.644781
    28  H    4.406761   5.917211   4.982810   3.766582   4.472632
                   21         22         23         24         25
    21  H    0.000000
    22  H    2.775158   0.000000
    23  H    6.158451   4.839628   0.000000
    24  H    6.216041   4.784801   1.783591   0.000000
    25  H    5.876646   5.203156   1.785942   1.785675   0.000000
    26  H    2.869480   4.428421   5.129906   5.690533   4.585580
    27  H    3.430378   4.902431   6.226477   7.139716   6.202038
    28  H    2.410501   4.304658   6.892832   7.516738   6.842636
                   26         27         28
    26  H    0.000000
    27  H    2.157667   0.000000
    28  H    2.736971   1.600547   0.000000
 Stoichiometry    C8H15N5
 Framework group  C1[X(C8H15N5)]
 Deg. of freedom    78
 Full point group                 C1      NOp   1
 Largest Abelian subgroup         C1      NOp   1
 Largest concise Abelian subgroup C1      NOp   1
                         Standard orientation:                         
 ---------------------------------------------------------------------
 Center     Atomic      Atomic             Coordinates (Angstroms)
 Number     Number       Type             X           Y           Z
 ---------------------------------------------------------------------
      1          6           0       -2.223877   -2.028173    0.965491
      2          6           0       -2.312648   -1.506996   -0.455622
      3          6           0       -3.147337   -0.292222   -0.792118
      4          6           0       -1.646515   -0.219545   -0.881685
      5          6           0       -0.851128    0.633957    0.089944
      6          6           0        0.556278    0.124991    0.259210
      7          7           0        1.425990    0.061038   -0.764254
      8          7           0        2.556962   -0.413916   -0.227938
      9          7           0        2.478454   -0.669770    1.079648
     10          6           0        1.217867   -0.341322    1.403792
     11          6           0        3.775415   -0.617914   -0.989923
     12          7           0       -0.896992    2.039951   -0.391612
     13          7           0       -0.506737    2.900417    0.706879
     14          1           0       -1.250027   -2.493632    1.164078
     15          1           0       -2.995361   -2.786743    1.144055
     16          1           0       -2.371374   -1.238341    1.709969
     17          1           0       -2.307893   -2.306316   -1.195678
     18          1           0       -3.711364   -0.278866   -1.721098
     19          1           0       -3.632857    0.236345    0.024910
     20          1           0       -1.223720   -0.209837   -1.884568
     21          1           0       -1.330341    0.620914    1.072255
     22          1           0        0.854895   -0.435831    2.417444
     23          1           0        4.554111    0.076482   -0.660758
     24          1           0        4.127165   -1.644014   -0.857745
     25          1           0        3.541449   -0.439258   -2.038480
     26          1           0       -0.132772    2.123564   -1.058893
     27          1           0       -0.342369    3.807438    0.273836
     28          1           0       -1.391615    3.027401    1.197078
 ---------------------------------------------------------------------
 Rotational constants (GHZ):           1.1065611           0.5420131           0.4473489
 Standard basis: 6-31G(d) (6D, 7F)
 There are   225 symmetry adapted cartesian basis functions of A   symmetry.
 There are   225 symmetry adapted basis functions of A   symmetry.
   225 basis functions,   424 primitive gaussians,   225 cartesian basis functions
    49 alpha electrons       49 beta electrons
       nuclear repulsion energy       823.6194502499 Hartrees.
 NAtoms=   28 NActive=   28 NUniq=   28 SFac= 1.00D+00 NAtFMM=   60 NAOKFM=F Big=F
 Integral buffers will be    131072 words long.
 Raffenetti 2 integral format.
 Two-electron integral symmetry is turned on.
 Nuclear repulsion after empirical dispersion term =      823.5719527010 Hartrees.
 One-electron integrals computed using PRISM.
 NBasis=   225 RedAO= T EigKep=  1.04D-03  NBF=   225
 NBsUse=   225 1.00D-06 EigRej= -1.00D+00 NBFU=   225
 Initial guess from the checkpoint file:  "JID_3907.chk"
 B after Tr=    -0.000000   -0.000000   -0.000000
         Rot=    0.999982    0.002649   -0.000878   -0.005256 Ang=   0.68 deg.
 ExpMin= 1.61D-01 ExpMax= 4.17D+03 ExpMxC= 6.27D+02 IAcc=2 IRadAn=         4 AccDes= 0.00D+00
 Harris functional with IExCor=  402 and IRadAn=       4 diagonalized for initial guess.
 HarFok:  IExCor=  402 AccDes= 0.00D+00 IRadAn=         4 IDoV= 1 UseB2=F ITyADJ=14
 ICtDFT=  3500011 ScaDFX=  1.000000  1.000000  1.000000  1.000000
 FoFCou: FMM=F IPFlag=           0 FMFlag=      100000 FMFlg1=           0
         NFxFlg=           0 DoJE=T BraDBF=F KetDBF=T FulRan=T
         wScrn=  0.000000 ICntrl=       500 IOpCl=  0 I1Cent=   200000004 NGrid=           0
         NMat0=    1 NMatS0=      1 NMatT0=    0 NMatD0=    1 NMtDS0=    0 NMtDT0=    0
 Petite list used in FoFCou.
 Keep R1 ints in memory in canonical form, NReq=329001168.
 Requested convergence on RMS density matrix=1.00D-08 within  32 cycles.
 Requested convergence on MAX density matrix=1.00D-06.
 Requested convergence on             energy=1.00D-06.
 No special actions if energy rises.
 Integral accuracy reduced to 1.0D-05 until final iterations.
 Initial convergence to 1.0D-05 achieved.  Increase integral accuracy.
 SCF Done:  E(RB3LYP) =  -587.572143362     A.U. after   12 cycles
            NFock= 12  Conv=0.48D-08     -V/T= 2.0095
 QCSCF skips out because SCF is already converged.
 Calling FoFJK, ICntrl=      2127 FMM=F ISym2X=0 I1Cent= 0 IOpClX= 0 NMat=1 NMatS=1 NMatT=0.
 ***** Axes restored to original set *****
 -------------------------------------------------------------------
 Center     Atomic                   Forces (Hartrees/Bohr)
 Number     Number              X              Y              Z
 -------------------------------------------------------------------
      1        6          -0.000399897   -0.000437941    0.001020427
      2        6           0.000413022   -0.001270242    0.002507350
      3        6          -0.001136104    0.000157072   -0.001221724
      4        6           0.000050136   -0.000778746   -0.000551895
      5        6          -0.003109480   -0.000071289   -0.007690272
      6        6          -0.002552195   -0.006800042   -0.000884457
      7        7          -0.002152177    0.003334921   -0.005978015
      8        7           0.005757977    0.012104924    0.011410411
      9        7           0.000368975   -0.003455732    0.002457530
     10        6          -0.000217090   -0.006970954   -0.004460812
     11        6          -0.000054621    0.001487696    0.000397050
     12        7          -0.015916108    0.002880574    0.002388914
[...]
   184    N    9  px     Ryd( 3p)     0.00003       0.72339
   185    N    9  px     Ryd( 5p)     0.00001       4.34256
   186    N    9  py     Val( 2p)     0.65855      -0.08782
   187    N    9  py     Ryd( 4p)     0.00178       0.92703
   188    N    9  py     Ryd( 3p)     0.00004       0.78011
   189    N    9  py     Ryd( 5p)     0.00003       4.16981
   190    N    9  pz     Val( 2p)     0.57418      -0.07935
   191    N    9  pz     Ryd( 4p)     0.00108       0.92026
   192    N    9  pz     Ryd( 3p)     0.00004       0.74364
   193    N    9  pz     Ryd( 5p)     0.00001       4.04411
   194    N    9  dxy    Ryd( 3d)     0.00074       2.67411
   195    N    9  dxz    Ryd( 3d)     0.00050       2.52554
   196    N    9  dyz    Ryd( 3d)     0.00083       2.74408
   197    N    9  dx2y2  Ryd( 3d)     0.00090       2.86052
   198    N    9  dz2    Ryd( 3d)     0.00060       2.48800
 
   199    C   10  S      Cor( 1S)     0.99955      -9.96427
   200    C   10  S      Val( 2S)     0.46478      -0.08080
   201    C   10  S      Ryd( 4S)     0.00149       1.40334
   202    C   10  S      Ryd( 3S)     0.00032       0.87507
   203    C   10  S      Ryd( 5S)     0.00003      19.51634
   204    C   10  px     Val( 2p)     0.47140       0.04416
   205    C   10  px     Ryd( 3p)     0.00326       1.07855
   206    C   10  px     Ryd( 4p)     0.00005       1.23342
   207    C   10  px     Ryd( 5p)     0.00005       2.32727
   208    C   10  py     Val( 2p)     0.54586       0.02425
   209    C   10  py     Ryd( 3p)     0.00293       1.13195
   210    C   10  py     Ryd( 4p)     0.00007       1.19980
   211    C   10  py     Ryd( 5p)     0.00003       2.16512
   212    C   10  pz     Val( 2p)     0.53850      -0.00732
   213    C   10  pz     Ryd( 3p)     0.00123       0.96121
   214    C   10  pz     Ryd( 4p)     0.00010       1.15251
   215    C   10  pz     Ryd( 5p)     0.00002       2.21443
   216    C   10  dxy    Ryd( 3d)     0.00065       2.31979
   217    C   10  dxz    Ryd( 3d)     0.00067       2.05749
   218    C   10  dyz    Ryd( 3d)     0.00032       2.32129
   219    C   10  dx2y2  Ryd( 3d)     0.00052       2.46747
   220    C   10  dz2    Ryd( 3d)     0.00039       1.95926
 
   221    C   11  S      Cor( 1S)     0.99963      -9.97770
   222    C   11  S      Val( 2S)     0.53420      -0.16957
   223    C   11  S      Ryd( 4S)     0.00155       1.46181
   224    C   11  S      Ryd( 3S)     0.00056       1.34487
   225    C   11  S      Ryd( 5S)     0.00001      21.70842
   226    C   11  px     Val( 2p)     0.43373       0.01140
   227    C   11  px     Ryd( 3p)     0.00136       0.77691
   228    C   11  px     Ryd( 4p)     0.00018       0.89119
   229    C   11  px     Ryd( 5p)     0.00004       2.51881
   230    C   11  py     Val( 2p)     0.60924      -0.01599
   231    C   11  py     Ryd( 3p)     0.00138       0.63271
   232    C   11  py     Ryd( 4p)     0.00017       1.42515
   233    C   11  py     Ryd( 5p)     0.00002       2.45083
   234    C   11  pz     Val( 2p)     0.58814      -0.01375
   235    C   11  pz     Ryd( 3p)     0.00095       0.62858
   236    C   11  pz     Ryd( 4p)     0.00010       1.43164
   237    C   11  pz     Ryd( 5p)     0.00002       2.42590
   238    C   11  dxy    Ryd( 3d)     0.00035       2.22317
   239    C   11  dxz    Ryd( 3d)     0.00047       2.11966
   240    C   11  dyz    Ryd( 3d)     0.00034       2.16618
   241    C   11  dx2y2  Ryd( 3d)     0.00054       2.36727
   242    C   11  dz2    Ryd( 3d)     0.00044       2.22223
 
   243    N   12  S      Cor( 1S)     0.99974     -14.06854
   244    N   12  S      Val( 2S)     0.68055      -0.44935
   245    N   12  S      Ryd( 3S)     0.00168       1.80377
   246    N   12  S      Ryd( 4S)     0.00044       2.65409
   247    N   12  S      Ryd( 5S)     0.00000      31.76822
   248    N   12  px     Val( 2p)     0.81062      -0.11154
   249    N   12  px     Ryd( 3p)     0.00370       0.92428
   250    N   12  px     Ryd( 4p)     0.00031       1.42142
   251    N   12  px     Ryd( 5p)     0.00002       4.08155
   252    N   12  py     Val( 2p)     0.64622      -0.09492
   253    N   12  py     Ryd( 3p)     0.00251       0.87508
   254    N   12  py     Ryd( 4p)     0.00030       1.16567
   255    N   12  py     Ryd( 5p)     0.00001       4.30540
   256    N   12  pz     Val( 2p)     0.59652      -0.07578
   257    N   12  pz     Ryd( 3p)     0.00165       0.84790
   258    N   12  pz     Ryd( 4p)     0.00047       1.13355
   259    N   12  pz     Ryd( 5p)     0.00002       4.35171
   260    N   12  dxy    Ryd( 3d)     0.00048       2.55758
   261    N   12  dxz    Ryd( 3d)     0.00086       2.81888
   262    N   12  dyz    Ryd( 3d)     0.00022       2.58200
   263    N   12  dx2y2  Ryd( 3d)     0.00068       2.79412
   264    N   12  dz2    Ryd( 3d)     0.00063       2.71548
 
   265    N   13  S      Cor( 1S)     0.99977     -14.06158
   266    N   13  S      Val( 2S)     0.71752      -0.48116
   267    N   13  S      Ryd( 3S)     0.00020       1.32010
   268    N   13  S      Ryd( 4S)     0.00054       1.42104
   269    N   13  S      Ryd( 5S)     0.00001      32.78142
   270    N   13  px     Val( 2p)     0.63548      -0.07600
   271    N   13  px     Ryd( 3p)     0.00225       0.70160
   272    N   13  px     Ryd( 4p)     0.00034       1.06494
   273    N   13  px     Ryd( 5p)     0.00001       4.26221
   274    N   13  py     Val( 2p)     0.68738      -0.08784
   275    N   13  py     Ryd( 3p)     0.00169       0.96882
   276    N   13  py     Ryd( 4p)     0.00018       1.29559
   277    N   13  py     Ryd( 5p)     0.00001       4.23287
   278    N   13  pz     Val( 2p)     0.78173      -0.11057
   279    N   13  pz     Ryd( 3p)     0.00373       0.83135
   280    N   13  pz     Ryd( 4p)     0.00010       1.26632
   281    N   13  pz     Ryd( 5p)     0.00001       3.99836
   282    N   13  dxy    Ryd( 3d)     0.00010       2.56171
   283    N   13  dxz    Ryd( 3d)     0.00070       2.66462
   284    N   13  dyz    Ryd( 3d)     0.00047       2.53257
   285    N   13  dx2y2  Ryd( 3d)     0.00073       3.00833
   286    N   13  dz2    Ryd( 3d)     0.00069       2.61367
 
   287    H   14  S      Val( 1S)     0.39991       0.12572
   288    H   14  S      Ryd( 2S)     0.00047       0.52081
   289    H   14  S      Ryd( 4S)     0.00033       1.51504
   290    H   14  S      Ryd( 3S)     0.00002       1.12694
   291    H   14  px     Ryd( 2p)     0.00010       2.31131
   292    H   14  py     Ryd( 2p)     0.00011       2.40839
   293    H   14  pz     Ryd( 2p)     0.00007       1.82805
 
   294    H   15  S      Val( 1S)     0.39778       0.12743
   295    H   15  S      Ryd( 2S)     0.00034       0.33891
   296    H   15  S      Ryd( 4S)     0.00029       1.40312
   297    H   15  S      Ryd( 3S)     0.00002       1.28732
   298    H   15  px     Ryd( 2p)     0.00012       2.60240
   299    H   15  py     Ryd( 2p)     0.00008       2.10901
   300    H   15  pz     Ryd( 2p)     0.00007       1.82791
 
   301    H   16  S      Val( 1S)     0.40237       0.12180
   302    H   16  S      Ryd( 2S)     0.00050       0.54177
   303    H   16  S      Ryd( 4S)     0.00031       1.69138
   304    H   16  S      Ryd( 3S)     0.00002       1.00186
   305    H   16  px     Ryd( 2p)     0.00008       1.90204
   306    H   16  py     Ryd( 2p)     0.00009       2.24309
   307    H   16  pz     Ryd( 2p)     0.00012       2.37494
 
   308    H   17  S      Val( 1S)     0.39540       0.14162
   309    H   17  S      Ryd( 2S)     0.00085       0.34701
   310    H   17  S      Ryd( 4S)     0.00034       1.75024
   311    H   17  S      Ryd( 3S)     0.00001       1.06837
   312    H   17  px     Ryd( 2p)     0.00013       1.84168
   313    H   17  py     Ryd( 2p)     0.00010       2.52612
   314    H   17  pz     Ryd( 2p)     0.00015       2.47977
 
   315    H   18  S      Val( 1S)     0.39596       0.14052
   316    H   18  S      Ryd( 2S)     0.00036       0.38248
   317    H   18  S      Ryd( 4S)     0.00027       1.44524
   318    H   18  S      Ryd( 3S)     0.00002       1.31362
   319    H   18  px     Ryd( 2p)     0.00010       2.26349
   320    H   18  py     Ryd( 2p)     0.00011       2.01389
   321    H   18  pz     Ryd( 2p)     0.00009       2.70001
 
   322    H   19  S      Val( 1S)     0.39764       0.13650
   323    H   19  S      Ryd( 2S)     0.00047       0.40818
   324    H   19  S      Ryd( 4S)     0.00032       1.88674
   325    H   19  S      Ryd( 3S)     0.00002       1.00593
   326    H   19  px     Ryd( 2p)     0.00010       2.13898
   327    H   19  py     Ryd( 2p)     0.00010       2.25062
   328    H   19  pz     Ryd( 2p)     0.00008       2.59622
 
   329    H   20  S      Val( 1S)     0.39221       0.14667
   330    H   20  S      Ryd( 2S)     0.00066       0.45080
   331    H   20  S      Ryd( 4S)     0.00041       1.64100
   332    H   20  S      Ryd( 3S)     0.00003       1.18037
   333    H   20  px     Ryd( 2p)     0.00007       2.24597
   334    H   20  py     Ryd( 2p)     0.00012       1.91798
   335    H   20  pz     Ryd( 2p)     0.00017       2.70905
 
   336    H   21  S      Val( 1S)     0.39282       0.13929
   337    H   21  S      Ryd( 2S)     0.00139       0.55998
   338    H   21  S      Ryd( 3S)     0.00049       2.63242
   339    H   21  S      Ryd( 4S)     0.00011       3.94736
   340    H   21  px     Ryd( 2p)     0.00010       2.25400
   341    H   21  py     Ryd( 2p)     0.00006       2.07082
   342    H   21  pz     Ryd( 2p)     0.00024       2.90495
 
   343    H   22  S      Val( 1S)     0.39672       0.12485
   344    H   22  S      Ryd( 2S)     0.00033       0.67946
   345    H   22  S      Ryd( 3S)     0.00025       1.29706
   346    H   22  S      Ryd( 4S)     0.00004       1.40115
   347    H   22  px     Ryd( 2p)     0.00012       2.27364
   348    H   22  py     Ryd( 2p)     0.00016       2.34042
   349    H   22  pz     Ryd( 2p)     0.00015       2.07878
 
   350    H   23  S      Val( 1S)     0.39077       0.10783
   351    H   23  S      Ryd( 2S)     0.00374       0.31058
   352    H   23  S      Ryd( 3S)     0.00030       1.12476
   353    H   23  S      Ryd( 4S)     0.00004       1.44533
   354    H   23  px     Ryd( 2p)     0.00006       2.10187
   355    H   23  py     Ryd( 2p)     0.00010       2.21688
   356    H   23  pz     Ryd( 2p)     0.00011       2.20575
 
   357    H   24  S      Val( 1S)     0.39044       0.11478
   358    H   24  S      Ryd( 2S)     0.00134       0.30781
   359    H   24  S      Ryd( 4S)     0.00026       1.28380
   360    H   24  S      Ryd( 3S)     0.00004       1.27239
   361    H   24  px     Ryd( 2p)     0.00006       2.06502
   362    H   24  py     Ryd( 2p)     0.00013       2.62077
   363    H   24  pz     Ryd( 2p)     0.00007       1.84134
 
   364    H   25  S      Val( 1S)     0.39015       0.11463
   365    H   25  S      Ryd( 2S)     0.00181       0.30781
   366    H   25  S      Ryd( 3S)     0.00028       1.13510
   367    H   25  S      Ryd( 4S)     0.00004       1.39274
   368    H   25  px     Ryd( 2p)     0.00004       1.86022
   369    H   25  py     Ryd( 2p)     0.00008       2.04424
   370    H   25  pz     Ryd( 2p)     0.00013       2.65344
 
   371    H   26  S      Val( 1S)     0.33190       0.16748
   372    H   26  S      Ryd( 2S)     0.00178       0.46328
   373    H   26  S      Ryd( 3S)     0.00090       1.26939
   374    H   26  S      Ryd( 4S)     0.00012       2.40945
   375    H   26  px     Ryd( 2p)     0.00037       2.00513
   376    H   26  py     Ryd( 2p)     0.00019       2.04517
   377    H   26  pz     Ryd( 2p)     0.00023       2.66829
 
   378    H   27  S      Val( 1S)     0.32503       0.18089
   379    H   27  S      Ryd( 2S)     0.00063       0.47062
   380    H   27  S      Ryd( 4S)     0.00049       1.75489
   381    H   27  S      Ryd( 3S)     0.00004       1.17758
   382    H   27  px     Ryd( 2p)     0.00027       2.72206
   383    H   27  py     Ryd( 2p)     0.00022       1.92692
   384    H   27  pz     Ryd( 2p)     0.00034       1.85126
 
   385    H   28  S      Val( 1S)     0.32649       0.17999
   386    H   28  S      Ryd( 2S)     0.00049       0.44203
   387    H   28  S      Ryd( 4S)     0.00021       1.55944
   388    H   28  S      Ryd( 3S)     0.00005       1.35296
   389    H   28  px     Ryd( 2p)     0.00019       1.88695
   390    H   28  py     Ryd( 2p)     0.00033       2.71169
   391    H   28  pz     Ryd( 2p)     0.00035       1.82625

 WARNING:  Population inversion found on atom  C    1
           Population inversion found on atom  C    2
           Population inversion found on atom  C    3
           Population inversion found on atom  C    4
           Population inversion found on atom  C    5
           Population inversion found on atom  C    6
           Population inversion found on atom  N    7
           Population inversion found on atom  N    9
           Population inversion found on atom  C   10
           Population inversion found on atom  C   11
           Population inversion found on atom  N   13
           Population inversion found on atom  H   14
           Population inversion found on atom  H   15
           Population inversion found on atom  H   16
           Population inversion found on atom  H   17
           Population inversion found on atom  H   18
           Population inversion found on atom  H   19
           Population inversion found on atom  H   20
           Population inversion found on atom  H   24
           Population inversion found on atom  H   27
           Population inversion found on atom  H   28


 Summary of Natural Population Analysis:                  
                                                          
                                       Natural Population 
                Natural  -----------------------------------------------
    Atom  No    Charge         Core      Valence    Rydberg      Total
 -----------------------------------------------------------------------
      C    1   -0.28691      0.99965     2.28091    0.00635     3.28691
      C    2   -0.10989      0.99959     2.09971    0.01059     3.10989
      C    3   -0.19154      0.99959     2.18223    0.00971     3.19154
      C    4   -0.10901      0.99955     2.09805    0.01142     3.10901
      C    5   -0.02811      0.99953     2.01321    0.01537     3.02811
      C    6    0.05590      0.99956     1.92851    0.01604     2.94410
      N    7   -0.15090      0.99969     2.63895    0.01226     3.65090
      N    8   -0.00954      0.99972     2.49348    0.01634     3.50954
      N    9   -0.13001      0.99973     2.61902    0.01126     3.63001
      C   10   -0.03223      0.99955     2.02054    0.01213     3.03223
      C   11   -0.17342      0.99963     2.16530    0.00849     3.17342
      N   12   -0.24763      0.99974     2.73391    0.01397     3.74763
      N   13   -0.33366      0.99977     2.82211    0.01178     3.83366
      H   14    0.09899      0.00000     0.39991    0.00110     0.40101
      H   15    0.10130      0.00000     0.39778    0.00092     0.39870
      H   16    0.09651      0.00000     0.40237    0.00111     0.40349
      H   17    0.10303      0.00000     0.39540    0.00158     0.39697
      H   18    0.10309      0.00000     0.39596    0.00095     0.39691
      H   19    0.10127      0.00000     0.39764    0.00108     0.39873
      H   20    0.10634      0.00000     0.39221    0.00145     0.39366
      H   21    0.10478      0.00000     0.39282    0.00240     0.39522
      H   22    0.10223      0.00000     0.39672    0.00105     0.39777
      H   23    0.10489      0.00000     0.39077    0.00435     0.39511
      H   24    0.10767      0.00000     0.39044    0.00189     0.39233
      H   25    0.10747      0.00000     0.39015    0.00238     0.39253
      H   26    0.16451      0.00000     0.33190    0.00359     0.33549
      H   27    0.17299      0.00000     0.32503    0.00198     0.32701
      H   28    0.17189      0.00000     0.32649    0.00161     0.32811
 =======================================================================
   * Total *    0.00000     12.99531    35.82154    0.18315    49.00000

                                 Natural Population      
 --------------------------------------------------------
   Core                      12.99531 ( 99.9639% of  13)
   Valence                   35.82154 ( 99.5043% of  36)
   Natural Minimal Basis     48.81685 ( 99.6262% of  49)
   Natural Rydberg Basis      0.18315 (  0.3738% of  49)
 --------------------------------------------------------

    Atom  No          Natural Electron Configuration
 ----------------------------------------------------------------------------
      C    1      [core]2S( 0.54)2p( 1.74)
      C    2      [core]2S( 0.47)2p( 1.63)
      C    3      [core]2S( 0.50)2p( 1.68)
      C    4      [core]2S( 0.47)2p( 1.63)3p( 0.01)
      C    5      [core]2S( 0.47)2p( 1.55)3p( 0.01)
      C    6      [core]2S( 0.44)2p( 1.49)3p( 0.01)
      N    7      [core]2S( 0.71)2p( 1.93)3p( 0.01)
      N    8      [core]2S( 0.58)2p( 1.91)3p( 0.01)
      N    9      [core]2S( 0.71)2p( 1.90)
      C   10      [core]2S( 0.46)2p( 1.56)3p( 0.01)
      C   11      [core]2S( 0.53)2p( 1.63)
      N   12      [core]2S( 0.68)2p( 2.05)3p( 0.01)
      N   13      [core]2S( 0.72)2p( 2.10)3p( 0.01)
      H   14            1S( 0.40)
      H   15            1S( 0.40)
      H   16            1S( 0.40)
      H   17            1S( 0.40)
      H   18            1S( 0.40)
      H   19            1S( 0.40)
      H   20            1S( 0.39)
      H   21            1S( 0.39)
      H   22            1S( 0.40)
      H   23            1S( 0.39)
      H   24            1S( 0.39)
      H   25            1S( 0.39)
      H   26            1S( 0.33)
      H   27            1S( 0.33)
      H   28            1S( 0.33)


 NBO analysis skipped by request.
 1\1\GINC-NODE304\SP\UB3LYP\6-311++G(d,p)\C8H15N5(1-,2)\VSC10255\13-Dec
 -2020\0\\# B3LYP/6-311++G(d,p) empiricaldispersion=gd3bj scf=xqc pop=n
 pa geom=check\\CID_130603779_JID_3907_Energie_anion\\-1,2\C,0,1.256954
 9447,0.2216225425,0.2589515923\C,0,0.5809035752,0.6233208486,-1.034798
 7903\C,0,1.0439947682,1.8313354329,-1.8125203532\C,0,1.2222902387,0.45
 42076893,-2.3974914614\C,0,2.6169887083,-0.1200993745,-2.5838118572\C,
 0,2.5455458852,-1.6236459123,-2.7424699185\N,0,2.5720723859,-2.1952154
 419,-3.9548622045\N,0,2.4351599622,-3.5000294248,-3.7025518085\N,0,2.3
 366831956,-3.8277597239,-2.4160484815\C,0,2.4006265534,-2.6489190764,-
 1.7883652281\C,0,2.5127327949,-4.4977346159,-4.7493995835\N,0,3.263896
 5001,0.5485063491,-3.7147127145\N,0,4.6015554383,0.0537478226,-3.87113
 90644\H,0,1.1110386122,-0.8439531974,0.4740905775\H,0,0.8419672124,0.7
 898137169,1.0999187968\H,0,2.333984703,0.4161148394,0.2367992179\H,0,-
 0.4952944738,0.4573970142,-1.0277214439\H,0,0.3066214525,2.496673542,-
 2.2526788957\H,0,1.946559981,2.3324311412,-1.4713472034\H,0,0.53913008
 43,0.173559978,-3.1984393244\H,0,3.2358098622,0.101765525,-1.709767960
 4\H,0,2.3353730929,-2.5884024974,-0.7122361712\H,0,3.5549346327,-4.686
 4557085,-5.0277367329\H,0,2.0634190928,-5.4148070549,-4.3689235578\H,0
 ,1.9634587238,-4.1383688627,-5.6212549433\H,0,2.7080750744,0.345738416
 8,-4.5501985084\H,0,4.5990354381,-0.8163518152,-4.4087717354\H,0,5.110
 2315609,0.7528478474,-4.4065422422\\Version=ES64L-G16RevA.03\State=2-A
 \HF=-587.7375714\S2=0.750046\S2-1=0.\S2A=0.75\RMSD=9.569e-12\Dipole=0.
 2530557,1.6121739,1.3525193\Quadrupole=8.7590249,-9.6382473,0.8792224,
 8.3213497,9.2299881,-17.4458814\PG=C01 [X(C8H15N5)]\\@


 TIMES HAVE CHANGED. IN THE BIBLE WHEN AN ASS
 SPOKE IT WAS CONSIDERED A MIRACLE.
 Job cpu time:       0 days  0 hours 28 minutes 44.3 seconds.
 Elapsed time:       0 days  0 hours  7 minutes 13.2 seconds.
 File lengths (MBytes):  RWF=    200 Int=      0 D2E=      0 Chk=     20 Scr=      8
 Normal termination of Gaussian 16 at Sun Dec 13 16:31:43 2020.
