 Entering Gaussian System, Link 0=g16
 Initial command:
 /apps/brussel/CO7/skylake/software/Gaussian/G16.A.03-intel-2017b/g16/l1.exe "/scratch/brussel/102/vsc10255/3547575[4191].master01.hydra.brussel.vsc/Gau-127653.inp" -scrdir="/scratch/brussel/102/vsc10255/3547575[4191].master01.hydra.brussel.vsc/"
 Entering Link 1 = /apps/brussel/CO7/skylake/software/Gaussian/G16.A.03-intel-2017b/g16/l1.exe.bin PID=    127655.
  
 Copyright (c) 1988,1990,1992,1993,1995,1998,2003,2009,2016,
            Gaussian, Inc.  All Rights Reserved.
  
 This is part of the Gaussian(R) 16 program.  It is based on
 the Gaussian(R) 09 system (copyright 2009, Gaussian, Inc.),
 the Gaussian(R) 03 system (copyright 2003, Gaussian, Inc.),
 the Gaussian(R) 98 system (copyright 1998, Gaussian, Inc.),
 the Gaussian(R) 94 system (copyright 1995, Gaussian, Inc.),
 the Gaussian 92(TM) system (copyright 1992, Gaussian, Inc.),
 the Gaussian 90(TM) system (copyright 1990, Gaussian, Inc.),
 the Gaussian 88(TM) system (copyright 1988, Gaussian, Inc.),
 the Gaussian 86(TM) system (copyright 1986, Carnegie Mellon
 University), and the Gaussian 82(TM) system (copyright 1983,
 Carnegie Mellon University). Gaussian is a federally registered
 trademark of Gaussian, Inc.
  
 This software contains proprietary and confidential information,
 including trade secrets, belonging to Gaussian, Inc.
  
 This software is provided under written license and may be
 used, copied, transmitted, or stored only in accord with that
 written license.
  
 The following legend is applicable only to US Government
 contracts under FAR:
  
                    RESTRICTED RIGHTS LEGEND
  
 Use, reproduction and disclosure by the US Government is
 subject to restrictions as set forth in subparagraphs (a)
 and (c) of the Commercial Computer Software - Restricted
 Rights clause in FAR 52.227-19.
  
 Gaussian, Inc.
 340 Quinnipiac St., Bldg. 40, Wallingford CT 06492
  
  
 ---------------------------------------------------------------
 Warning -- This program may not be used in any manner that
 competes with the business of Gaussian, Inc. or will provide
 assistance to any competitor of Gaussian, Inc.  The licensee
 of this program is prohibited from giving any competitor of
 Gaussian, Inc. access to this program.  By using this program,
 the user acknowledges that Gaussian, Inc. is engaged in the
 business of creating and licensing software in the field of
 computational chemistry and represents and warrants to the
 licensee that it is not a competitor of Gaussian, Inc. and that
 it will not use this program in any manner prohibited above.
 ---------------------------------------------------------------
  

 Cite this work as:
 Gaussian 16, Revision A.03,
 M. J. Frisch, G. W. Trucks, H. B. Schlegel, G. E. Scuseria, 
 M. A. Robb, J. R. Cheeseman, G. Scalmani, V. Barone, 
 G. A. Petersson, H. Nakatsuji, X. Li, M. Caricato, A. V. Marenich, 
 J. Bloino, B. G. Janesko, R. Gomperts, B. Mennucci, H. P. Hratchian, 
 J. V. Ortiz, A. F. Izmaylov, J. L. Sonnenberg, D. Williams-Young, 
 F. Ding, F. Lipparini, F. Egidi, J. Goings, B. Peng, A. Petrone, 
 T. Henderson, D. Ranasinghe, V. G. Zakrzewski, J. Gao, N. Rega, 
 G. Zheng, W. Liang, M. Hada, M. Ehara, K. Toyota, R. Fukuda, 
 J. Hasegawa, M. Ishida, T. Nakajima, Y. Honda, O. Kitao, H. Nakai, 
 T. Vreven, K. Throssell, J. A. Montgomery, Jr., J. E. Peralta, 
 F. Ogliaro, M. J. Bearpark, J. J. Heyd, E. N. Brothers, K. N. Kudin, 
 V. N. Staroverov, T. A. Keith, R. Kobayashi, J. Normand, 
 K. Raghavachari, A. P. Rendell, J. C. Burant, S. S. Iyengar, 
 J. Tomasi, M. Cossi, J. M. Millam, M. Klene, C. Adamo, R. Cammi, 
 J. W. Ochterski, R. L. Martin, K. Morokuma, O. Farkas, 
 J. B. Foresman, and D. J. Fox, Gaussian, Inc., Wallingford CT, 2016.
 
 ******************************************
 Gaussian 16:  ES64L-G16RevA.03 25-Dec-2016
                10-Dec-2020 
 ******************************************
 %chk=JID_4191.chk
 %mem=8GB
 %nprocshared=4
 Will use up to    4 processors via shared memory.
 -----------------------------------------------------------
 # opt freq B3LYP/6-31G(d) empiricaldispersion=gd3bj scf=xqc
 -----------------------------------------------------------
 1/18=20,19=15,26=3,38=1/1,3;
 2/9=110,12=2,17=6,18=5,40=1/2;
 3/5=1,6=6,7=1,11=2,25=1,30=1,71=1,74=-5,124=41/1,2,3;
 4//1;
 5/5=2,8=3,13=1,38=5/2,8;
 6/7=2,8=2,9=2,10=2,28=1/1;
 7//1,2,3,16;
 1/18=20,19=15,26=3/3(2);
 2/9=110/2;
 99//99;
 2/9=110/2;
 3/5=1,6=6,7=1,11=2,25=1,30=1,71=1,74=-5,124=41/1,2,3;
 4/5=5,16=3,69=1/1;
 5/5=2,8=3,13=1,38=5/2,8;
 7//1,2,3,16;
 1/18=20,19=15,26=3/3(-5);
 2/9=110/2;
 6/7=2,8=2,9=2,10=2,19=2,28=1/1;
 99/9=1/99;
 -------------------------------
 CID_149764085_JID_4191_neutraal
 -------------------------------
 Symbolic Z-matrix:
 Charge =  0 Multiplicity = 1
 C                     1.04608  -0.06417  -0.06131 
 C                     0.24557  -0.72667   1.05026 
 C                     0.41032  -0.04823   2.42259 
 C                    -0.13528   1.38093   2.4529 
 N                    -0.2179   -0.87516   3.4728 
 C                     0.63553  -1.58887   4.42725 
 C                     1.1332   -0.69169   5.56454 
 C                     0.09498  -0.40943   6.65848 
 C                    -0.28134  -1.62121   7.53575 
 C                     0.90127  -2.13451   8.35989 
 C                    -1.43369  -1.24654   8.47199 
 N                    -1.59353  -0.98239   3.43355 
 N                    -2.17587  -1.72672   4.24895 
 N                    -2.72943  -2.40545   4.98033 
 H                     0.68379   0.9469   -0.26842 
 H                     0.95594  -0.64413  -0.98546 
 H                     2.10736  -0.00641   0.19994 
 H                    -0.81297  -0.75068   0.76338 
 H                     0.56729  -1.77312   1.12834 
 H                     1.48159   0.00777   2.65424 
 H                    -1.18777   1.41667   2.15212 
 H                    -0.06458   1.80009   3.46275 
 H                     0.43064   2.03572   1.78329 
 H                     0.12869  -2.4807    4.80339 
 H                     1.49806  -1.95984   3.85994 
 H                     2.02205  -1.14841   6.01218 
 H                     1.46524   0.26924   5.1522 
 H                     0.49248   0.38243   7.30722 
 H                    -0.80792   0.00629   6.19545 
 H                    -0.62939  -2.44206   6.90078 
 H                     1.3296   -1.33915   8.97906 
 H                     0.58713  -2.94657   9.02482 
 H                     1.69272  -2.5329    7.7185 
 H                    -2.30781  -0.91593   7.90122 
 H                    -1.73885  -2.10758   9.07646 
 H                    -1.1467   -0.43878   9.15369 
 

 GradGradGradGradGradGradGradGradGradGradGradGradGradGradGradGradGradGrad
 Berny optimization.
 Initialization pass.
                           ----------------------------
                           !    Initial Parameters    !
                           ! (Angstroms and Degrees)  !
 --------------------------                            --------------------------
 ! Name  Definition              Value          Derivative Info.                !
 --------------------------------------------------------------------------------
 ! R1    R(1,2)                  1.5216         estimate D2E/DX2                !
 ! R2    R(1,15)                 1.0938         estimate D2E/DX2                !
 ! R3    R(1,16)                 1.0948         estimate D2E/DX2                !
 ! R4    R(1,17)                 1.0945         estimate D2E/DX2                !
 ! R5    R(2,3)                  1.5397         estimate D2E/DX2                !
 ! R6    R(2,18)                 1.097          estimate D2E/DX2                !
 ! R7    R(2,19)                 1.0976         estimate D2E/DX2                !
 ! R8    R(3,4)                  1.5301         estimate D2E/DX2                !
 ! R9    R(3,5)                  1.477          estimate D2E/DX2                !
 ! R10   R(3,20)                 1.0975         estimate D2E/DX2                !
 ! R11   R(4,21)                 1.0952         estimate D2E/DX2                !
 ! R12   R(4,22)                 1.0957         estimate D2E/DX2                !
 ! R13   R(4,23)                 1.0943         estimate D2E/DX2                !
 ! R14   R(5,6)                  1.4658         estimate D2E/DX2                !
 ! R15   R(5,12)                 1.3804         estimate D2E/DX2                !
 ! R16   R(6,7)                  1.5317         estimate D2E/DX2                !
 ! R17   R(6,24)                 1.0926         estimate D2E/DX2                !
 ! R18   R(6,25)                 1.097          estimate D2E/DX2                !
 ! R19   R(7,8)                  1.5344         estimate D2E/DX2                !
 ! R20   R(7,26)                 1.095          estimate D2E/DX2                !
 ! R21   R(7,27)                 1.0971         estimate D2E/DX2                !
 ! R22   R(8,9)                  1.5426         estimate D2E/DX2                !
 ! R23   R(8,28)                 1.0981         estimate D2E/DX2                !
 ! R24   R(8,29)                 1.0966         estimate D2E/DX2                !
 ! R25   R(9,10)                 1.5301         estimate D2E/DX2                !
 ! R26   R(9,11)                 1.5313         estimate D2E/DX2                !
 ! R27   R(9,30)                 1.0946         estimate D2E/DX2                !
 ! R28   R(10,31)                1.0952         estimate D2E/DX2                !
 ! R29   R(10,32)                1.0956         estimate D2E/DX2                !
 ! R30   R(10,33)                1.0938         estimate D2E/DX2                !
 ! R31   R(11,34)                1.0951         estimate D2E/DX2                !
 ! R32   R(11,35)                1.0954         estimate D2E/DX2                !
 ! R33   R(11,36)                1.0952         estimate D2E/DX2                !
 ! R34   R(12,13)                1.2482         estimate D2E/DX2                !
 ! R35   R(13,14)                1.1411         estimate D2E/DX2                !
 ! A1    A(2,1,15)             111.5018         estimate D2E/DX2                !
 ! A2    A(2,1,16)             110.0414         estimate D2E/DX2                !
 ! A3    A(2,1,17)             111.0226         estimate D2E/DX2                !
 ! A4    A(15,1,16)            107.6122         estimate D2E/DX2                !
 ! A5    A(15,1,17)            108.5169         estimate D2E/DX2                !
 ! A6    A(16,1,17)            108.0164         estimate D2E/DX2                !
 ! A7    A(1,2,3)              113.7638         estimate D2E/DX2                !
 ! A8    A(1,2,18)             109.0347         estimate D2E/DX2                !
 ! A9    A(1,2,19)             108.2325         estimate D2E/DX2                !
 ! A10   A(3,2,18)             110.2417         estimate D2E/DX2                !
 ! A11   A(3,2,19)             108.9859         estimate D2E/DX2                !
 ! A12   A(18,2,19)            106.295          estimate D2E/DX2                !
 ! A13   A(2,3,4)              113.0211         estimate D2E/DX2                !
 ! A14   A(2,3,5)              109.9712         estimate D2E/DX2                !
 ! A15   A(2,3,20)             108.3646         estimate D2E/DX2                !
 ! A16   A(4,3,5)              110.9286         estimate D2E/DX2                !
 ! A17   A(4,3,20)             107.2315         estimate D2E/DX2                !
 ! A18   A(5,3,20)             107.0781         estimate D2E/DX2                !
 ! A19   A(3,4,21)             111.575          estimate D2E/DX2                !
 ! A20   A(3,4,22)             110.6452         estimate D2E/DX2                !
 ! A21   A(3,4,23)             111.2469         estimate D2E/DX2                !
 ! A22   A(21,4,22)            107.6167         estimate D2E/DX2                !
 ! A23   A(21,4,23)            108.0241         estimate D2E/DX2                !
 ! A24   A(22,4,23)            107.5604         estimate D2E/DX2                !
 ! A25   A(3,5,6)              119.2062         estimate D2E/DX2                !
 ! A26   A(3,5,12)             116.5618         estimate D2E/DX2                !
 ! A27   A(6,5,12)             124.1185         estimate D2E/DX2                !
 ! A28   A(5,6,7)              112.7955         estimate D2E/DX2                !
 ! A29   A(5,6,24)             110.5797         estimate D2E/DX2                !
 ! A30   A(5,6,25)             106.6003         estimate D2E/DX2                !
 ! A31   A(7,6,24)             111.9149         estimate D2E/DX2                !
 ! A32   A(7,6,25)             109.0624         estimate D2E/DX2                !
 ! A33   A(24,6,25)            105.4707         estimate D2E/DX2                !
 ! A34   A(6,7,8)              114.663          estimate D2E/DX2                !
 ! A35   A(6,7,26)             108.8429         estimate D2E/DX2                !
 ! A36   A(6,7,27)             109.4091         estimate D2E/DX2                !
 ! A37   A(8,7,26)             109.5436         estimate D2E/DX2                !
 ! A38   A(8,7,27)             108.1569         estimate D2E/DX2                !
 ! A39   A(26,7,27)            105.8605         estimate D2E/DX2                !
 ! A40   A(7,8,9)              115.215          estimate D2E/DX2                !
 ! A41   A(7,8,28)             107.9937         estimate D2E/DX2                !
 ! A42   A(7,8,29)             109.0161         estimate D2E/DX2                !
 ! A43   A(9,8,28)             108.5897         estimate D2E/DX2                !
 ! A44   A(9,8,29)             109.6988         estimate D2E/DX2                !
 ! A45   A(28,8,29)            105.9099         estimate D2E/DX2                !
 ! A46   A(8,9,10)             112.413          estimate D2E/DX2                !
 ! A47   A(8,9,11)             109.821          estimate D2E/DX2                !
 ! A48   A(8,9,30)             109.6797         estimate D2E/DX2                !
 ! A49   A(10,9,11)            109.5359         estimate D2E/DX2                !
 ! A50   A(10,9,30)            107.8567         estimate D2E/DX2                !
 ! A51   A(11,9,30)            107.3902         estimate D2E/DX2                !
 ! A52   A(9,10,31)            111.2945         estimate D2E/DX2                !
 ! A53   A(9,10,32)            110.7284         estimate D2E/DX2                !
 ! A54   A(9,10,33)            111.4434         estimate D2E/DX2                !
 ! A55   A(31,10,32)           107.8975         estimate D2E/DX2                !
 ! A56   A(31,10,33)           108.2416         estimate D2E/DX2                !
 ! A57   A(32,10,33)           107.061          estimate D2E/DX2                !
 ! A58   A(9,11,34)            110.8483         estimate D2E/DX2                !
 ! A59   A(9,11,35)            110.7755         estimate D2E/DX2                !
 ! A60   A(9,11,36)            111.3347         estimate D2E/DX2                !
 ! A61   A(34,11,35)           107.6117         estimate D2E/DX2                !
 ! A62   A(34,11,36)           108.1146         estimate D2E/DX2                !
 ! A63   A(35,11,36)           108.0145         estimate D2E/DX2                !
 ! A64   A(5,12,13)            119.5176         estimate D2E/DX2                !
 ! A65   L(12,13,14,7,-1)      181.2614         estimate D2E/DX2                !
 ! A66   L(12,13,14,7,-2)      179.7693         estimate D2E/DX2                !
 ! D1    D(15,1,2,3)           -65.6719         estimate D2E/DX2                !
 ! D2    D(15,1,2,18)           57.8189         estimate D2E/DX2                !
 ! D3    D(15,1,2,19)          173.0424         estimate D2E/DX2                !
 ! D4    D(16,1,2,3)           174.9957         estimate D2E/DX2                !
 ! D5    D(16,1,2,18)          -61.5134         estimate D2E/DX2                !
 ! D6    D(16,1,2,19)           53.7101         estimate D2E/DX2                !
 ! D7    D(17,1,2,3)            55.4646         estimate D2E/DX2                !
 ! D8    D(17,1,2,18)          178.9555         estimate D2E/DX2                !
 ! D9    D(17,1,2,19)          -65.821          estimate D2E/DX2                !
 ! D10   D(1,2,3,4)             64.5325         estimate D2E/DX2                !
 ! D11   D(1,2,3,5)           -170.9012         estimate D2E/DX2                !
 ! D12   D(1,2,3,20)           -54.1657         estimate D2E/DX2                !
 ! D13   D(18,2,3,4)           -58.2991         estimate D2E/DX2                !
 ! D14   D(18,2,3,5)            66.2672         estimate D2E/DX2                !
 ! D15   D(18,2,3,20)         -176.9973         estimate D2E/DX2                !
 ! D16   D(19,2,3,4)          -174.6028         estimate D2E/DX2                !
 ! D17   D(19,2,3,5)           -50.0365         estimate D2E/DX2                !
 ! D18   D(19,2,3,20)           66.699          estimate D2E/DX2                !
 ! D19   D(2,3,4,21)            56.1268         estimate D2E/DX2                !
 ! D20   D(2,3,4,22)           175.9133         estimate D2E/DX2                !
 ! D21   D(2,3,4,23)           -64.5865         estimate D2E/DX2                !
 ! D22   D(5,3,4,21)           -67.9162         estimate D2E/DX2                !
 ! D23   D(5,3,4,22)            51.8703         estimate D2E/DX2                !
 ! D24   D(5,3,4,23)           171.3705         estimate D2E/DX2                !
 ! D25   D(20,3,4,21)          175.4806         estimate D2E/DX2                !
 ! D26   D(20,3,4,22)          -64.7329         estimate D2E/DX2                !
 ! D27   D(20,3,4,23)           54.7673         estimate D2E/DX2                !
 ! D28   D(2,3,5,6)            108.5833         estimate D2E/DX2                !
 ! D29   D(2,3,5,12)           -67.7045         estimate D2E/DX2                !
 ! D30   D(4,3,5,6)           -125.6518         estimate D2E/DX2                !
 ! D31   D(4,3,5,12)            58.0604         estimate D2E/DX2                !
 ! D32   D(20,3,5,6)            -8.9543         estimate D2E/DX2                !
 ! D33   D(20,3,5,12)          174.7579         estimate D2E/DX2                !
 ! D34   D(3,5,6,7)             80.9022         estimate D2E/DX2                !
 ! D35   D(3,5,6,24)          -152.9233         estimate D2E/DX2                !
 ! D36   D(3,5,6,25)           -38.7653         estimate D2E/DX2                !
 ! D37   D(12,5,6,7)          -103.109          estimate D2E/DX2                !
 ! D38   D(12,5,6,24)           23.0655         estimate D2E/DX2                !
 ! D39   D(12,5,6,25)          137.2235         estimate D2E/DX2                !
 ! D40   D(3,5,12,13)          176.0462         estimate D2E/DX2                !
 ! D41   D(6,5,12,13)           -0.0396         estimate D2E/DX2                !
 ! D42   D(5,6,7,8)             77.5258         estimate D2E/DX2                !
 ! D43   D(5,6,7,26)          -159.4054         estimate D2E/DX2                !
 ! D44   D(5,6,7,27)           -44.1654         estimate D2E/DX2                !
 ! D45   D(24,6,7,8)           -47.9293         estimate D2E/DX2                !
 ! D46   D(24,6,7,26)           75.1395         estimate D2E/DX2                !
 ! D47   D(24,6,7,27)         -169.6205         estimate D2E/DX2                !
 ! D48   D(25,6,7,8)          -164.2385         estimate D2E/DX2                !
 ! D49   D(25,6,7,26)          -41.1697         estimate D2E/DX2                !
 ! D50   D(25,6,7,27)           74.0703         estimate D2E/DX2                !
 ! D51   D(6,7,8,9)             68.9809         estimate D2E/DX2                !
 ! D52   D(6,7,8,28)          -169.4568         estimate D2E/DX2                !
 ! D53   D(6,7,8,29)           -54.8242         estimate D2E/DX2                !
 ! D54   D(26,7,8,9)           -53.7106         estimate D2E/DX2                !
 ! D55   D(26,7,8,28)           67.8517         estimate D2E/DX2                !
 ! D56   D(26,7,8,29)         -177.5156         estimate D2E/DX2                !
 ! D57   D(27,7,8,9)          -168.6472         estimate D2E/DX2                !
 ! D58   D(27,7,8,28)          -47.0848         estimate D2E/DX2                !
 ! D59   D(27,7,8,29)           67.5478         estimate D2E/DX2                !
 ! D60   D(7,8,9,10)            64.2692         estimate D2E/DX2                !
 ! D61   D(7,8,9,11)          -173.5118         estimate D2E/DX2                !
 ! D62   D(7,8,9,30)           -55.7162         estimate D2E/DX2                !
 ! D63   D(28,8,9,10)          -56.9704         estimate D2E/DX2                !
 ! D64   D(28,8,9,11)           65.2487         estimate D2E/DX2                !
 ! D65   D(28,8,9,30)         -176.9558         estimate D2E/DX2                !
 ! D66   D(29,8,9,10)         -172.2865         estimate D2E/DX2                !
 ! D67   D(29,8,9,11)          -50.0674         estimate D2E/DX2                !
 ! D68   D(29,8,9,30)           67.7282         estimate D2E/DX2                !
 ! D69   D(8,9,10,31)           55.9045         estimate D2E/DX2                !
 ! D70   D(8,9,10,32)          175.9155         estimate D2E/DX2                !
 ! D71   D(8,9,10,33)          -65.0287         estimate D2E/DX2                !
 ! D72   D(11,9,10,31)         -66.4759         estimate D2E/DX2                !
 ! D73   D(11,9,10,32)          53.5351         estimate D2E/DX2                !
 ! D74   D(11,9,10,33)         172.591          estimate D2E/DX2                !
 ! D75   D(30,9,10,31)         176.9411         estimate D2E/DX2                !
 ! D76   D(30,9,10,32)         -63.0479         estimate D2E/DX2                !
 ! D77   D(30,9,10,33)          56.0079         estimate D2E/DX2                !
 ! D78   D(8,9,11,34)           58.4875         estimate D2E/DX2                !
 ! D79   D(8,9,11,35)          177.8777         estimate D2E/DX2                !
 ! D80   D(8,9,11,36)          -61.9052         estimate D2E/DX2                !
 ! D81   D(10,9,11,34)        -177.5991         estimate D2E/DX2                !
 ! D82   D(10,9,11,35)         -58.2088         estimate D2E/DX2                !
 ! D83   D(10,9,11,36)          62.0082         estimate D2E/DX2                !
 ! D84   D(30,9,11,34)         -60.7218         estimate D2E/DX2                !
 ! D85   D(30,9,11,35)          58.6684         estimate D2E/DX2                !
 ! D86   D(30,9,11,36)         178.8855         estimate D2E/DX2                !
 --------------------------------------------------------------------------------
 Trust Radius=3.00D-01 FncErr=1.00D-07 GrdErr=1.00D-06 EigMax=2.50D+02 EigMin=1.00D-04
 Number of steps in this run=    197 maximum allowed number of steps=    216.
 GradGradGradGradGradGradGradGradGradGradGradGradGradGradGradGradGradGrad

                          Input orientation:                          
 ---------------------------------------------------------------------
 Center     Atomic      Atomic             Coordinates (Angstroms)
 Number     Number       Type             X           Y           Z
 ---------------------------------------------------------------------
      1          6           0        1.046080   -0.064170   -0.061310
      2          6           0        0.245570   -0.726670    1.050260
      3          6           0        0.410320   -0.048230    2.422590
      4          6           0       -0.135280    1.380930    2.452900
      5          7           0       -0.217900   -0.875160    3.472800
      6          6           0        0.635530   -1.588870    4.427250
      7          6           0        1.133200   -0.691690    5.564540
      8          6           0        0.094980   -0.409430    6.658480
      9          6           0       -0.281340   -1.621210    7.535750
     10          6           0        0.901270   -2.134510    8.359890
     11          6           0       -1.433690   -1.246540    8.471990
     12          7           0       -1.593530   -0.982390    3.433550
     13          7           0       -2.175870   -1.726720    4.248950
     14          7           0       -2.729430   -2.405450    4.980330
     15          1           0        0.683790    0.946900   -0.268420
     16          1           0        0.955940   -0.644130   -0.985460
     17          1           0        2.107360   -0.006410    0.199940
     18          1           0       -0.812970   -0.750680    0.763380
     19          1           0        0.567290   -1.773120    1.128340
     20          1           0        1.481590    0.007770    2.654240
     21          1           0       -1.187770    1.416670    2.152120
     22          1           0       -0.064580    1.800090    3.462750
     23          1           0        0.430640    2.035720    1.783290
     24          1           0        0.128690   -2.480700    4.803390
     25          1           0        1.498060   -1.959840    3.859940
     26          1           0        2.022050   -1.148410    6.012180
     27          1           0        1.465240    0.269240    5.152200
     28          1           0        0.492480    0.382430    7.307220
     29          1           0       -0.807920    0.006290    6.195450
     30          1           0       -0.629390   -2.442060    6.900780
     31          1           0        1.329600   -1.339150    8.979060
     32          1           0        0.587130   -2.946570    9.024820
     33          1           0        1.692720   -2.532900    7.718500
     34          1           0       -2.307810   -0.915930    7.901220
     35          1           0       -1.738850   -2.107580    9.076460
     36          1           0       -1.146700   -0.438780    9.153690
 ---------------------------------------------------------------------
                    Distance matrix (angstroms):
                    1          2          3          4          5
     1  C    0.000000
     2  C    1.521614   0.000000
     3  C    2.564021   1.539712   0.000000
     4  C    3.131322   2.560161   1.530064   0.000000
     5  N    3.839959   2.470942   1.476961   2.477290   0.000000
     6  C    4.758196   3.507067   2.538297   3.648550   1.465844
     7  C    5.661410   4.600852   3.287620   3.948050   2.496900
     8  C    6.795541   5.619204   4.262941   4.576605   3.234711
     9  C    7.867766   6.568060   5.394170   5.905044   4.131365
    10  C    8.673171   7.472794   6.312300   6.951639   5.169347
    11  C    8.964623   7.627074   6.436735   6.694693   5.158291
    12  N    4.474898   3.021217   2.431072   2.945072   1.380361
    13  N    5.632351   4.134621   3.583476   4.128837   2.271830
    14  N    6.719688   5.207147   4.685782   5.239675   3.304878
    15  H    1.093806   2.175268   2.882118   2.874864   4.257896
    16  H    1.094775   2.157683   3.502514   4.136901   4.615989
    17  H    1.094488   2.169811   2.796760   3.468425   4.107697
    18  H    2.146503   1.096988   2.177809   2.803124   2.776790
    19  H    2.136590   1.097569   2.162167   3.492291   2.630465
    20  H    2.751192   2.154043   1.097459   2.130816   2.082756
    21  H    3.475952   2.804009   2.184715   1.095208   2.817326
    22  H    4.138602   3.507252   2.173419   1.095669   2.679659
    23  H    2.861967   2.863980   2.179900   1.094255   3.427575
    24  H    5.508768   4.144426   3.415323   4.528429   2.113848
    25  H    4.378819   3.314173   2.627433   3.975966   2.066622
    26  H    6.246229   5.287192   4.085734   4.870329   3.397130
    27  H    5.240949   4.393785   2.943538   3.329225   2.638749
    28  H    7.402780   6.359294   4.904266   4.995549   4.097432
    29  H    6.526050   5.302834   3.965041   4.043360   2.921969
    30  H    7.545347   6.159278   5.183204   5.885833   3.791510
    31  H    9.134235   8.025966   6.745283   7.220490   5.738375
    32  H    9.543407   8.284819   7.212564   7.901852   5.980279
    33  H    8.187687   7.058480   5.988723   6.810741   4.942119
    34  H    8.681933   7.313769   6.177096   6.299178   4.896967
    35  H    9.768838   8.382405   7.289296   7.655892   5.935752
    36  H    9.479707   8.227203   6.919866   7.016759   5.772834
                    6          7          8          9         10
     6  C    0.000000
     7  C    1.531677   0.000000
     8  C    2.581019   1.534365   0.000000
     9  C    3.241060   2.598192   1.542605   0.000000
    10  C    3.979196   3.154283   2.553586   1.530114   0.000000
    11  C    4.556181   3.917914   2.515234   1.531285   2.500619
    12  N    2.514750   3.472849   3.685040   4.354076   5.640943
    13  N    2.820419   3.708370   3.563404   3.795185   5.151205
    14  N    3.506516   4.265933   3.844161   3.624686   4.967577
    15  H    5.336832   6.075390   7.082956   8.272348   9.164612
    16  H    5.503874   6.552571   7.695853   8.665828   9.463603
    17  H    4.747696   5.495228   6.776787   7.882105   8.518700
    18  H    4.027984   5.180945   5.974364   6.848755   7.909524
    19  H    3.304756   4.601045   5.715346   6.465149   7.248273
    20  H    2.531529   3.013381   4.258014   5.439728   6.122138
    21  H    4.187351   4.634295   5.028655   6.247704   7.450596
    22  H    3.592418   3.472919   3.888461   5.323684   6.355779
    23  H    4.491120   4.714892   5.464330   6.853528   7.801537
    24  H    1.092579   2.188366   2.780765   2.893551   3.655875
    25  H    1.097004   2.155687   3.493455   4.097867   4.542710
    26  H    2.151382   1.095002   2.162728   2.801858   2.782136
    27  H    2.160218   1.097115   2.146412   3.507941   4.047882
    28  H    3.492952   2.145038   1.098140   2.159999   2.758661
    29  H    2.784711   2.157121   1.096562   2.173119   3.491297
    30  H    2.906253   2.820648   2.171406   1.094587   2.136939
    31  H    4.611189   3.480909   2.788146   2.181245   1.095187
    32  H    4.794094   4.166079   3.504120   2.174431   1.095563
    33  H    3.583458   2.888366   2.861038   2.182084   1.093841
    34  H    4.602669   4.165442   2.752153   2.176596   3.463165
    35  H    5.246131   4.752578   3.477538   2.175932   2.735769
    36  H    5.180568   4.259566   2.787239   2.182824   2.774851
                   11         12         13         14         15
    11  C    0.000000
    12  N    5.047891   0.000000
    13  N    4.314565   1.248208   0.000000
    14  N    3.900475   2.389121   1.141061   0.000000
    15  H    9.256871   4.755305   5.977669   7.101950   0.000000
    16  H    9.773259   5.112912   6.195102   7.230135   1.766236
    17  H    9.083159   5.010525   6.140033   7.211245   1.776151
    18  H    7.749441   2.791554   3.867732   4.918714   2.487304
    19  H    7.629574   3.257052   4.155152   5.109406   3.059905
    20  H    6.627093   3.323267   4.350698   5.382101   3.171812
    21  H    6.862501   2.749944   3.905629   4.998409   3.095551
    22  H    6.020706   3.175017   4.184978   5.204906   3.899951
    23  H    7.680343   3.991192   5.198974   6.319106   2.336478
    24  H    4.174064   2.662224   2.487345   2.864580   6.146530
    25  H    5.511348   3.270343   3.701815   4.396079   5.114248
    26  H    4.242927   4.444020   4.589766   5.022094   6.754791
    27  H    4.660728   3.725105   4.249400   4.977827   5.518424
    28  H    2.778554   4.606462   4.574016   4.854626   7.599049
    29  H    2.672790   3.036900   2.943378   3.314394   6.700117
    30  H    2.131869   3.883540   3.152065   2.845986   8.037843
    31  H    2.810955   6.278905   5.900209   5.796772   9.547721
    32  H    2.698043   6.314711   5.650764   5.258353  10.076347
    33  H    3.463655   5.618213   5.258678   5.202810   8.770282
    34  H    1.095065   4.524896   3.743510   3.305757   8.897349
    35  H    1.095398   5.755832   4.862190   4.224720  10.125503
    36  H    1.095242   5.763260   5.174404   4.877475   9.697781
                   16         17         18         19         20
    16  H    0.000000
    17  H    1.771335   0.000000
    18  H    2.489746   3.065898   0.000000
    19  H    2.427719   2.520914   1.756046   0.000000
    20  H    3.734796   2.532860   3.068486   2.517118   0.000000
    21  H    4.322823   4.085835   2.601246   3.781947   3.059838
    22  H    5.177088   4.315865   3.788550   4.314691   2.501348
    23  H    3.888896   3.080370   3.217267   3.867156   2.444510
    24  H    6.129284   5.588291   4.494594   3.768160   3.555512
    25  H    5.050038   4.193177   4.048656   2.891857   2.307699
    26  H    7.096327   5.923983   5.978748   5.134051   3.592299
    27  H    6.226114   5.001318   5.048982   4.600978   2.511660
    28  H    8.368821   7.298799   6.768307   6.544505   4.771680
    29  H    7.422918   6.666720   5.484561   5.543745   4.216874
    30  H    8.242488   7.636979   6.368842   5.933008   5.337697
    31  H    9.995716   8.913700   8.510834   7.899573   6.468434
    32  H   10.278276   9.425187   8.662194   7.983218   7.079016
    33  H    8.936958   7.942533   7.604504   6.728601   5.669772
    34  H    9.470957   8.923602   7.294561   7.407623   6.537857
    35  H   10.518831   9.899538   8.473826   8.282678   7.489382
    36  H   10.356912   9.536534   8.402735   8.314113   7.024967
                   21         22         23         24         25
    21  H    0.000000
    22  H    1.768140   0.000000
    23  H    1.771584   1.766734   0.000000
    24  H    4.894057   4.489970   5.441528   0.000000
    25  H    4.640167   4.091048   4.627781   1.742575   0.000000
    26  H    5.637610   4.421230   5.527638   2.611701   2.359051
    27  H    4.165998   2.745559   3.942132   3.077370   2.576783
    28  H    5.519778   4.135218   5.766368   3.820867   4.287325
    29  H    4.299067   3.352301   5.011963   3.000031   3.825940
    30  H    6.144213   5.489526   6.882070   2.230521   3.742364
    31  H    7.780669   6.498326   7.998561   4.492387   5.159363
    32  H    8.331995   7.341126   8.791329   4.271730   5.336611
    33  H    7.408165   6.322524   7.595515   3.308592   3.905736
    34  H    6.304575   5.666468   7.323962   4.240470   5.648570
    35  H    7.789128   7.041790   8.663945   4.678253   6.140969
    36  H    7.243367   6.210501   7.933092   4.972039   6.110006
                   26         27         28         29         30
    26  H    0.000000
    27  H    1.749095   0.000000
    28  H    2.521941   2.367105   0.000000
    29  H    3.061968   2.514909   1.751729   0.000000
    30  H    3.081116   3.846577   3.066191   2.554169   0.000000
    31  H    3.052580   4.153333   2.541585   3.758681   3.061585
    32  H    3.790564   5.109765   3.747179   4.320982   2.499199
    33  H    2.221891   3.806525   3.179446   3.875612   2.463557
    34  H    4.729715   4.816393   3.143278   2.451492   2.479324
    35  H    4.945118   5.596006   3.782749   3.692600   2.465028
    36  H    4.518145   4.830677   2.602066   3.010655   3.058814
                   31         32         33         34         35
    31  H    0.000000
    32  H    1.771201   0.000000
    33  H    1.773670   1.760660   0.000000
    34  H    3.817277   3.710344   4.318821   0.000000
    35  H    3.164705   2.473207   3.714919   1.767748   0.000000
    36  H    2.640686   3.051522   3.808860   1.773282   1.772428
                   36
    36  H    0.000000
 Stoichiometry    C10H22N4
 Framework group  C1[X(C10H22N4)]
 Deg. of freedom   102
 Full point group                 C1      NOp   1
 Largest Abelian subgroup         C1      NOp   1
 Largest concise Abelian subgroup C1      NOp   1
                         Standard orientation:                         
 ---------------------------------------------------------------------
 Center     Atomic      Atomic             Coordinates (Angstroms)
 Number     Number       Type             X           Y           Z
 ---------------------------------------------------------------------
      1          6           0        4.761643   -0.647923   -0.462483
      2          6           0        3.450074    0.108495   -0.613901
      3          6           0        2.292113   -0.486674    0.208057
      4          6           0        2.527108   -0.406753    1.717853
      5          7           0        1.021262    0.167804   -0.163443
      6          6           0        0.027249   -0.585424   -0.933693
      7          6           0       -0.818108   -1.517613   -0.060521
      8          6           0       -1.924702   -0.817231    0.738973
      9          6           0       -3.088049   -0.254227   -0.103214
     10          6           0       -3.875406   -1.353647   -0.819170
     11          6           0       -4.033291    0.553004    0.791062
     12          7           0        0.887849    1.497630    0.181753
     13          7           0       -0.132079    2.125089   -0.170478
     14          7           0       -1.052759    2.720512   -0.486451
     15          1           0        5.151730   -0.573999    0.556721
     16          1           0        5.515864   -0.229888   -1.136968
     17          1           0        4.635290   -1.706452   -0.710382
     18          1           0        3.609158    1.158816   -0.340220
     19          1           0        3.172592    0.105582   -1.675811
     20          1           0        2.195092   -1.548921   -0.050081
     21          1           0        2.713792    0.622455    2.042450
     22          1           0        1.651514   -0.773374    2.265041
     23          1           0        3.383895   -1.017334    2.018685
     24          1           0       -0.592583    0.091390   -1.526534
     25          1           0        0.585088   -1.185732   -1.662983
     26          1           0       -1.259568   -2.292973   -0.695312
     27          1           0       -0.166326   -2.044744    0.647274
     28          1           0       -2.331510   -1.539256    1.459458
     29          1           0       -1.479103   -0.013772    1.337591
     30          1           0       -2.695829    0.427663   -0.864338
     31          1           0       -4.249493   -2.100525   -0.110885
     32          1           0       -4.736233   -0.931571   -1.349346
     33          1           0       -3.259635   -1.866216   -1.563878
     34          1           0       -3.499510    1.373553    1.281923
     35          1           0       -4.845675    0.991764    0.201641
     36          1           0       -4.480249   -0.075774    1.568508
 ---------------------------------------------------------------------
 Rotational constants (GHZ):           1.1849259           0.3346036           0.2971375
 Standard basis: 6-31G(d) (6D, 7F)
 There are   254 symmetry adapted cartesian basis functions of A   symmetry.
 There are   254 symmetry adapted basis functions of A   symmetry.
   254 basis functions,   480 primitive gaussians,   254 cartesian basis functions
    55 alpha electrons       55 beta electrons
       nuclear repulsion energy       956.8164788474 Hartrees.
 NAtoms=   36 NActive=   36 NUniq=   36 SFac= 1.00D+00 NAtFMM=   60 NAOKFM=F Big=F
 Integral buffers will be    131072 words long.
 Raffenetti 2 integral format.
 Two-electron integral symmetry is turned on.
 Nuclear repulsion after empirical dispersion term =      956.7544908322 Hartrees.
 One-electron integrals computed using PRISM.
 NBasis=   254 RedAO= T EigKep=  1.12D-03  NBF=   254
 NBsUse=   254 1.00D-06 EigRej= -1.00D+00 NBFU=   254
 ExpMin= 1.61D-01 ExpMax= 4.17D+03 ExpMxC= 6.27D+02 IAcc=3 IRadAn=         5 AccDes= 0.00D+00
 Harris functional with IExCor=  402 and IRadAn=       5 diagonalized for initial guess.
 HarFok:  IExCor=  402 AccDes= 0.00D+00 IRadAn=         5 IDoV= 1 UseB2=F ITyADJ=14
 ICtDFT=  3500011 ScaDFX=  1.000000  1.000000  1.000000  1.000000
 FoFCou: FMM=F IPFlag=           0 FMFlag=      100000 FMFlg1=           0
         NFxFlg=           0 DoJE=T BraDBF=F KetDBF=T FulRan=T
         wScrn=  0.000000 ICntrl=       500 IOpCl=  0 I1Cent=   200000004 NGrid=           0
         NMat0=    1 NMatS0=      1 NMatT0=    0 NMatD0=    1 NMtDS0=    0 NMtDT0=    0
 Petite list used in FoFCou.
 Requested convergence on RMS density matrix=1.00D-08 within  32 cycles.
 Requested convergence on MAX density matrix=1.00D-06.
 Requested convergence on             energy=1.00D-06.
 No special actions if energy rises.
 Integral accuracy reduced to 1.0D-05 until final iterations.
 Initial convergence to 1.0D-05 achieved.  Increase integral accuracy.
 SCF Done:  E(RB3LYP) =  -613.268955044     A.U. after   15 cycles
            NFock= 15  Conv=0.55D-08     -V/T= 2.0099
 QCSCF skips out because SCF is already converged.

 **********************************************************************

            Population analysis using the SCF density.

 **********************************************************************

 Orbital symmetries:
       Occupied  (A) (A) (A) (A) (A) (A) (A) (A) (A) (A) (A) (A)
                 (A) (A) (A) (A) (A) (A) (A) (A) (A) (A) (A) (A)
                 (A) (A) (A) (A) (A) (A) (A) (A) (A) (A) (A) (A)
                 (A) (A) (A) (A) (A) (A) (A) (A) (A) (A) (A) (A)
                 (A) (A) (A) (A) (A) (A) (A)
       Virtual   (A) (A) (A) (A) (A) (A) (A) (A) (A) (A) (A) (A)
                 (A) (A) (A) (A) (A) (A) (A) (A) (A) (A) (A) (A)
                 (A) (A) (A) (A) (A) (A) (A) (A) (A) (A) (A) (A)
                 (A) (A) (A) (A) (A) (A) (A) (A) (A) (A) (A) (A)
                 (A) (A) (A) (A) (A) (A) (A) (A) (A) (A) (A) (A)
                 (A) (A) (A) (A) (A) (A) (A) (A) (A) (A) (A) (A)
                 (A) (A) (A) (A) (A) (A) (A) (A) (A) (A) (A) (A)
                 (A) (A) (A) (A) (A) (A) (A) (A) (A) (A) (A) (A)
                 (A) (A) (A) (A) (A) (A) (A) (A) (A) (A) (A) (A)
                 (A) (A) (A) (A) (A) (A) (A) (A) (A) (A) (A) (A)
                 (A) (A) (A) (A) (A) (A) (A) (A) (A) (A) (A) (A)
                 (A) (A) (A) (A) (A) (A) (A) (A) (A) (A) (A) (A)
                 (A) (A) (A) (A) (A) (A) (A) (A) (A) (A) (A) (A)
                 (A) (A) (A) (A) (A) (A) (A) (A) (A) (A) (A) (A)
                 (A) (A) (A) (A) (A) (A) (A) (A) (A) (A) (A) (A)
                 (A) (A) (A) (A) (A) (A) (A) (A) (A) (A) (A) (A)
                 (A) (A) (A) (A) (A) (A) (A)
 The electronic state is 1-A.
 Alpha  occ. eigenvalues --  -14.49360 -14.40625 -14.39338 -14.36822 -10.23044
 Alpha  occ. eigenvalues --  -10.22558 -10.18322 -10.18273 -10.18046 -10.17720
 Alpha  occ. eigenvalues --  -10.17685 -10.17549 -10.16941 -10.16447  -1.13134
 Alpha  occ. eigenvalues --   -1.00934  -0.89182  -0.81397  -0.79100  -0.75694
 Alpha  occ. eigenvalues --   -0.72390  -0.68924  -0.67669  -0.65106  -0.61413
 Alpha  occ. eigenvalues --   -0.59800  -0.55555  -0.52238  -0.51363  -0.50172
 Alpha  occ. eigenvalues --   -0.46996  -0.46895  -0.45799  -0.44650  -0.44107
 Alpha  occ. eigenvalues --   -0.43902  -0.42823  -0.42414  -0.40031  -0.39241
 Alpha  occ. eigenvalues --   -0.38740  -0.37996  -0.37780  -0.36837  -0.35726
 Alpha  occ. eigenvalues --   -0.35530  -0.35023  -0.33956  -0.33395  -0.32068
 Alpha  occ. eigenvalues --   -0.31643  -0.30882  -0.30394  -0.30212  -0.17237
 Alpha virt. eigenvalues --   -0.03122   0.03433   0.07001   0.09165   0.10286
 Alpha virt. eigenvalues --    0.10858   0.11459   0.12458   0.12998   0.13943
 Alpha virt. eigenvalues --    0.14808   0.15158   0.15492   0.16221   0.16352
 Alpha virt. eigenvalues --    0.16934   0.17274   0.17934   0.18257   0.19233
 Alpha virt. eigenvalues --    0.19888   0.20153   0.21088   0.22010   0.22638
 Alpha virt. eigenvalues --    0.23677   0.23904   0.24406   0.24749   0.24931
 Alpha virt. eigenvalues --    0.25740   0.26542   0.27452   0.29707   0.30793
 Alpha virt. eigenvalues --    0.33986   0.45993   0.47329   0.49168   0.50263
 Alpha virt. eigenvalues --    0.51358   0.51593   0.51816   0.52567   0.53539
 Alpha virt. eigenvalues --    0.54277   0.55310   0.56889   0.59494   0.60017
 Alpha virt. eigenvalues --    0.61825   0.62514   0.63127   0.63842   0.66109
 Alpha virt. eigenvalues --    0.66204   0.66505   0.68416   0.70730   0.70871
 Alpha virt. eigenvalues --    0.72716   0.73181   0.73502   0.74376   0.75792
 Alpha virt. eigenvalues --    0.76910   0.78974   0.80381   0.83120   0.84141
 Alpha virt. eigenvalues --    0.84403   0.85132   0.85627   0.86857   0.87961
 Alpha virt. eigenvalues --    0.88594   0.89308   0.89592   0.90467   0.90824
 Alpha virt. eigenvalues --    0.91963   0.92182   0.93014   0.93418   0.93913
 Alpha virt. eigenvalues --    0.94241   0.94472   0.96166   0.96185   0.97279
 Alpha virt. eigenvalues --    0.98045   0.99140   1.00120   1.00671   1.01844
 Alpha virt. eigenvalues --    1.02065   1.03522   1.04230   1.07711   1.08286
 Alpha virt. eigenvalues --    1.12136   1.15008   1.19633   1.24285   1.27583
 Alpha virt. eigenvalues --    1.30003   1.33322   1.35339   1.38994   1.40743
 Alpha virt. eigenvalues --    1.43138   1.45670   1.45921   1.46887   1.48942
 Alpha virt. eigenvalues --    1.53095   1.54431   1.55101   1.57473   1.59103
 Alpha virt. eigenvalues --    1.63519   1.65635   1.66595   1.72914   1.73425
 Alpha virt. eigenvalues --    1.75171   1.78283   1.80737   1.81636   1.84251
 Alpha virt. eigenvalues --    1.85099   1.86270   1.87502   1.89380   1.92084
 Alpha virt. eigenvalues --    1.92878   1.93881   1.96504   1.97015   1.97486
 Alpha virt. eigenvalues --    1.99081   2.00840   2.02500   2.04763   2.05833
 Alpha virt. eigenvalues --    2.07222   2.08848   2.09774   2.11562   2.12213
 Alpha virt. eigenvalues --    2.15977   2.18317   2.19733   2.20002   2.23852
 Alpha virt. eigenvalues --    2.25113   2.26890   2.26960   2.28775   2.31124
 Alpha virt. eigenvalues --    2.33784   2.34978   2.36202   2.38990   2.40802
 Alpha virt. eigenvalues --    2.44350   2.46015   2.47520   2.50937   2.52141
 Alpha virt. eigenvalues --    2.54604   2.56375   2.59051   2.61936   2.65572
 Alpha virt. eigenvalues --    2.69008   2.72064   2.74516   2.77434   2.78473
 Alpha virt. eigenvalues --    2.85724   2.89109   2.92464   3.15138   3.20520
 Alpha virt. eigenvalues --    3.58841   3.66325   3.99054   4.13904   4.17751
 Alpha virt. eigenvalues --    4.22729   4.26327   4.29484   4.31519   4.40641
 Alpha virt. eigenvalues --    4.47450   4.53423   4.60266   4.61025
          Condensed to atoms (all electrons):
               1          2          3          4          5          6
     1  C    5.091850   0.348673  -0.039947  -0.000170   0.004759   0.000034
     2  C    0.348673   5.046720   0.384236  -0.065523  -0.068921  -0.000782
     3  C   -0.039947   0.384236   4.785389   0.365815   0.326384  -0.046409
     4  C   -0.000170  -0.065523   0.365815   5.158123  -0.065485   0.004883
     5  N    0.004759  -0.068921   0.326384  -0.065485   6.856733   0.302598
     6  C    0.000034  -0.000782  -0.046409   0.004883   0.302598   4.955669
     7  C    0.000010  -0.000106  -0.002310   0.000339  -0.071823   0.361370
     8  C   -0.000000  -0.000006  -0.000042   0.000006  -0.001766  -0.037510
     9  C   -0.000000   0.000000   0.000000  -0.000000  -0.000100  -0.005200
    10  C    0.000000   0.000000   0.000000  -0.000000   0.000013  -0.000612
    11  C    0.000000  -0.000000   0.000000   0.000000  -0.000008   0.000156
    12  N   -0.000001  -0.000605  -0.056554  -0.000232   0.172874  -0.039085
    13  N   -0.000003   0.000153   0.003785   0.000135  -0.051348  -0.009429
    14  N    0.000000  -0.000001  -0.000150   0.000001   0.002315   0.001140
    15  H    0.378156  -0.033790  -0.005789   0.002864  -0.000004  -0.000001
    16  H    0.372016  -0.026027   0.004017  -0.000030  -0.000133   0.000000
    17  H    0.376994  -0.038455  -0.005088  -0.000562   0.000041  -0.000013
    18  H   -0.038738   0.376680  -0.030696  -0.007667  -0.005635   0.000062
    19  H   -0.038001   0.370364  -0.036488   0.005679   0.000271   0.001393
    20  H   -0.003210  -0.048238   0.385427  -0.046935  -0.042534   0.000025
    21  H   -0.000167  -0.005684  -0.029609   0.377492  -0.006122   0.000171
    22  H    0.000026   0.005183  -0.027920   0.365199   0.001369  -0.000126
    23  H    0.000283  -0.000964  -0.027043   0.358367   0.004562  -0.000135
    24  H    0.000001  -0.000017   0.003278  -0.000263  -0.032833   0.372071
    25  H   -0.000239   0.002194  -0.001467  -0.000297  -0.044712   0.370112
    26  H   -0.000000   0.000018  -0.000068  -0.000024   0.005478  -0.033922
    27  H    0.000001   0.000050   0.002616  -0.000707  -0.006934  -0.037951
    28  H    0.000000  -0.000000   0.000003  -0.000001  -0.000150   0.005051
    29  H   -0.000000   0.000009  -0.000102   0.000019   0.006304  -0.007636
    30  H   -0.000000   0.000000  -0.000002  -0.000000   0.000001   0.001851
    31  H   -0.000000  -0.000000  -0.000000   0.000000  -0.000000   0.000051
    32  H   -0.000000   0.000000  -0.000000  -0.000000   0.000000  -0.000004
    33  H    0.000000  -0.000000   0.000000  -0.000000   0.000002   0.000374
    34  H   -0.000000   0.000000   0.000000  -0.000000   0.000014  -0.000001
    35  H    0.000000   0.000000   0.000000  -0.000000  -0.000000   0.000001
    36  H   -0.000000   0.000000  -0.000000  -0.000000   0.000000   0.000001
               7          8          9         10         11         12
     1  C    0.000010  -0.000000  -0.000000   0.000000   0.000000  -0.000001
     2  C   -0.000106  -0.000006   0.000000   0.000000  -0.000000  -0.000605
     3  C   -0.002310  -0.000042   0.000000   0.000000   0.000000  -0.056554
     4  C    0.000339   0.000006  -0.000000  -0.000000   0.000000  -0.000232
     5  N   -0.071823  -0.001766  -0.000100   0.000013  -0.000008   0.172874
     6  C    0.361370  -0.037510  -0.005200  -0.000612   0.000156  -0.039085
     7  C    5.106205   0.367662  -0.038124  -0.004719   0.004490   0.002576
     8  C    0.367662   5.031217   0.392018  -0.049063  -0.047960   0.000648
     9  C   -0.038124   0.392018   4.851520   0.376607   0.384784   0.000008
    10  C   -0.004719  -0.049063   0.376607   5.120050  -0.058028  -0.000003
    11  C    0.004490  -0.047960   0.384784  -0.058028   5.106201   0.000013
    12  N    0.002576   0.000648   0.000008  -0.000003   0.000013   6.917903
    13  N    0.000540   0.000374  -0.000307   0.000009   0.000006   0.302081
    14  N   -0.000241  -0.000501  -0.000538   0.000043  -0.000713  -0.105291
    15  H    0.000000  -0.000000   0.000000   0.000000  -0.000000  -0.000002
    16  H   -0.000000   0.000000   0.000000   0.000000  -0.000000   0.000004
    17  H   -0.000000   0.000000  -0.000000  -0.000000   0.000000  -0.000001
    18  H   -0.000014   0.000000  -0.000000   0.000000   0.000000   0.006044
    19  H    0.000059   0.000000   0.000000   0.000000  -0.000000   0.000054
    20  H   -0.000403  -0.000001   0.000002  -0.000000  -0.000000   0.003652
    21  H   -0.000019   0.000001  -0.000000  -0.000000   0.000000   0.005928
    22  H    0.000057   0.000018   0.000003   0.000000  -0.000000  -0.000186
    23  H   -0.000026   0.000000  -0.000000   0.000000  -0.000000   0.000095
    24  H   -0.048210  -0.006837   0.002713   0.000171  -0.000232  -0.007474
    25  H   -0.054463   0.004722   0.000143  -0.000024  -0.000000   0.003795
    26  H    0.345277  -0.036274  -0.009024   0.003993   0.000126  -0.000151
    27  H    0.370841  -0.032522   0.004587   0.000090  -0.000153   0.000094
    28  H   -0.034284   0.365539  -0.037030  -0.008689  -0.003989   0.000008
    29  H   -0.042710   0.370170  -0.037874   0.005651  -0.004606  -0.000544
    30  H   -0.005773  -0.048057   0.379705  -0.049111  -0.044053   0.000057
    31  H   -0.000293  -0.006484  -0.033595   0.371553  -0.004770   0.000000
    32  H    0.000091   0.005000  -0.030957   0.372132  -0.005252  -0.000000
    33  H    0.000574  -0.004286  -0.030572   0.368212   0.005551  -0.000000
    34  H    0.000007  -0.004583  -0.029906   0.005663   0.368623  -0.000050
    35  H   -0.000169   0.004966  -0.029390  -0.004143   0.369156   0.000000
    36  H    0.000020  -0.006281  -0.034940  -0.005611   0.371715  -0.000000
              13         14         15         16         17         18
     1  C   -0.000003   0.000000   0.378156   0.372016   0.376994  -0.038738
     2  C    0.000153  -0.000001  -0.033790  -0.026027  -0.038455   0.376680
     3  C    0.003785  -0.000150  -0.005789   0.004017  -0.005088  -0.030696
     4  C    0.000135   0.000001   0.002864  -0.000030  -0.000562  -0.007667
     5  N   -0.051348   0.002315  -0.000004  -0.000133   0.000041  -0.005635
     6  C   -0.009429   0.001140  -0.000001   0.000000  -0.000013   0.000062
     7  C    0.000540  -0.000241   0.000000  -0.000000  -0.000000  -0.000014
     8  C    0.000374  -0.000501  -0.000000   0.000000   0.000000   0.000000
     9  C   -0.000307  -0.000538   0.000000   0.000000  -0.000000  -0.000000
    10  C    0.000009   0.000043   0.000000   0.000000  -0.000000   0.000000
    11  C    0.000006  -0.000713  -0.000000  -0.000000   0.000000   0.000000
    12  N    0.302081  -0.105291  -0.000002   0.000004  -0.000001   0.006044
    13  N    5.828716   0.540307  -0.000000   0.000000   0.000000  -0.000199
    14  N    0.540307   6.854930  -0.000000  -0.000000   0.000000  -0.000001
    15  H   -0.000000  -0.000000   0.568448  -0.029743  -0.032483  -0.004958
    16  H    0.000000  -0.000000  -0.029743   0.569692  -0.030606  -0.002209
    17  H    0.000000   0.000000  -0.032483  -0.030606   0.583623   0.005271
    18  H   -0.000199  -0.000001  -0.004958  -0.002209   0.005271   0.575143
    19  H   -0.000099   0.000003   0.005398  -0.004729  -0.003942  -0.035704
    20  H   -0.000175  -0.000000  -0.000293  -0.000099   0.006237   0.005517
    21  H   -0.000187   0.000000   0.000316  -0.000031   0.000080   0.004885
    22  H   -0.000126   0.000002  -0.000089   0.000001  -0.000029  -0.000006
    23  H   -0.000001   0.000000   0.002440   0.000032   0.000351   0.000067
    24  H    0.004352   0.001568   0.000000  -0.000000   0.000000   0.000025
    25  H    0.000187  -0.000099   0.000003   0.000006  -0.000011  -0.000044
    26  H   -0.000024   0.000017   0.000000   0.000000  -0.000000   0.000000
    27  H   -0.000018  -0.000006  -0.000000  -0.000000  -0.000000   0.000001
    28  H    0.000026  -0.000007   0.000000  -0.000000   0.000000  -0.000000
    29  H   -0.001232   0.000790   0.000000   0.000000  -0.000000   0.000000
    30  H   -0.000283   0.004144   0.000000   0.000000  -0.000000  -0.000000
    31  H   -0.000000  -0.000000  -0.000000  -0.000000   0.000000  -0.000000
    32  H   -0.000000   0.000001   0.000000   0.000000  -0.000000   0.000000
    33  H    0.000000  -0.000000   0.000000  -0.000000   0.000000   0.000000
    34  H   -0.000051   0.002655   0.000000   0.000000  -0.000000   0.000000
    35  H    0.000003  -0.000019   0.000000   0.000000  -0.000000  -0.000000
    36  H   -0.000001   0.000011   0.000000   0.000000  -0.000000  -0.000000
              19         20         21         22         23         24
     1  C   -0.038001  -0.003210  -0.000167   0.000026   0.000283   0.000001
     2  C    0.370364  -0.048238  -0.005684   0.005183  -0.000964  -0.000017
     3  C   -0.036488   0.385427  -0.029609  -0.027920  -0.027043   0.003278
     4  C    0.005679  -0.046935   0.377492   0.365199   0.358367  -0.000263
     5  N    0.000271  -0.042534  -0.006122   0.001369   0.004562  -0.032833
     6  C    0.001393   0.000025   0.000171  -0.000126  -0.000135   0.372071
     7  C    0.000059  -0.000403  -0.000019   0.000057  -0.000026  -0.048210
     8  C    0.000000  -0.000001   0.000001   0.000018   0.000000  -0.006837
     9  C    0.000000   0.000002  -0.000000   0.000003  -0.000000   0.002713
    10  C    0.000000  -0.000000  -0.000000   0.000000   0.000000   0.000171
    11  C   -0.000000  -0.000000   0.000000  -0.000000  -0.000000  -0.000232
    12  N    0.000054   0.003652   0.005928  -0.000186   0.000095  -0.007474
    13  N   -0.000099  -0.000175  -0.000187  -0.000126  -0.000001   0.004352
    14  N    0.000003  -0.000000   0.000000   0.000002   0.000000   0.001568
    15  H    0.005398  -0.000293   0.000316  -0.000089   0.002440   0.000000
    16  H   -0.004729  -0.000099  -0.000031   0.000001   0.000032  -0.000000
    17  H   -0.003942   0.006237   0.000080  -0.000029   0.000351   0.000000
    18  H   -0.035704   0.005517   0.004885  -0.000006   0.000067   0.000025
    19  H    0.604542  -0.003629   0.000021  -0.000177  -0.000050  -0.000171
    20  H   -0.003629   0.604441   0.005138  -0.003232  -0.003476   0.000376
    21  H    0.000021   0.005138   0.541197  -0.028789  -0.029913   0.000009
    22  H   -0.000177  -0.003232  -0.028789   0.562631  -0.027192  -0.000002
    23  H   -0.000050  -0.003476  -0.029913  -0.027192   0.577725   0.000004
    24  H   -0.000171   0.000376   0.000009  -0.000002   0.000004   0.567292
    25  H    0.000926   0.000205  -0.000014   0.000071   0.000021  -0.029123
    26  H   -0.000002  -0.000227  -0.000000   0.000030   0.000001   0.001173
    27  H   -0.000005   0.002714  -0.000002   0.001562   0.000036   0.004876
    28  H   -0.000000   0.000001   0.000000  -0.000015  -0.000000   0.000064
    29  H   -0.000000  -0.000023  -0.000004   0.000528   0.000003   0.000487
    30  H   -0.000000  -0.000001  -0.000000   0.000000   0.000000   0.005375
    31  H    0.000000   0.000000  -0.000000   0.000000  -0.000000  -0.000001
    32  H   -0.000000   0.000000  -0.000000  -0.000000   0.000000   0.000003
    33  H   -0.000000   0.000000   0.000000  -0.000000   0.000000   0.000124
    34  H   -0.000000  -0.000000  -0.000000   0.000000   0.000000   0.000014
    35  H   -0.000000   0.000000   0.000000  -0.000000  -0.000000   0.000013
    36  H    0.000000  -0.000000  -0.000000   0.000000  -0.000000   0.000004
              25         26         27         28         29         30
     1  C   -0.000239  -0.000000   0.000001   0.000000  -0.000000  -0.000000
     2  C    0.002194   0.000018   0.000050  -0.000000   0.000009   0.000000
     3  C   -0.001467  -0.000068   0.002616   0.000003  -0.000102  -0.000002
     4  C   -0.000297  -0.000024  -0.000707  -0.000001   0.000019  -0.000000
     5  N   -0.044712   0.005478  -0.006934  -0.000150   0.006304   0.000001
     6  C    0.370112  -0.033922  -0.037951   0.005051  -0.007636   0.001851
     7  C   -0.054463   0.345277   0.370841  -0.034284  -0.042710  -0.005773
     8  C    0.004722  -0.036274  -0.032522   0.365539   0.370170  -0.048057
     9  C    0.000143  -0.009024   0.004587  -0.037030  -0.037874   0.379705
    10  C   -0.000024   0.003993   0.000090  -0.008689   0.005651  -0.049111
    11  C   -0.000000   0.000126  -0.000153  -0.003989  -0.004606  -0.044053
    12  N    0.003795  -0.000151   0.000094   0.000008  -0.000544   0.000057
    13  N    0.000187  -0.000024  -0.000018   0.000026  -0.001232  -0.000283
    14  N   -0.000099   0.000017  -0.000006  -0.000007   0.000790   0.004144
    15  H    0.000003   0.000000  -0.000000   0.000000   0.000000   0.000000
    16  H    0.000006   0.000000  -0.000000  -0.000000   0.000000   0.000000
    17  H   -0.000011  -0.000000  -0.000000   0.000000  -0.000000  -0.000000
    18  H   -0.000044   0.000000   0.000001  -0.000000   0.000000  -0.000000
    19  H    0.000926  -0.000002  -0.000005  -0.000000  -0.000000  -0.000000
    20  H    0.000205  -0.000227   0.002714   0.000001  -0.000023  -0.000001
    21  H   -0.000014  -0.000000  -0.000002   0.000000  -0.000004  -0.000000
    22  H    0.000071   0.000030   0.001562  -0.000015   0.000528   0.000000
    23  H    0.000021   0.000001   0.000036  -0.000000   0.000003   0.000000
    24  H   -0.029123   0.001173   0.004876   0.000064   0.000487   0.005375
    25  H    0.601607   0.000265  -0.001853  -0.000184   0.000160  -0.000100
    26  H    0.000265   0.618206  -0.035493  -0.003071   0.006171   0.000033
    27  H   -0.001853  -0.035493   0.597107  -0.004905  -0.002225  -0.000044
    28  H   -0.000184  -0.003071  -0.004905   0.614797  -0.037412   0.006134
    29  H    0.000160   0.006171  -0.002225  -0.037412   0.602739  -0.002849
    30  H   -0.000100   0.000033  -0.000044   0.006134  -0.002849   0.623713
    31  H    0.000001   0.000277  -0.000052   0.006194  -0.000003   0.005811
    32  H    0.000000  -0.000157   0.000001  -0.000025  -0.000161  -0.002622
    33  H   -0.000029   0.004370  -0.000061  -0.000068  -0.000084  -0.003826
    34  H    0.000000   0.000007  -0.000001  -0.000331   0.005280  -0.003566
    35  H   -0.000000   0.000000   0.000003  -0.000087   0.000026  -0.003589
    36  H    0.000000   0.000002  -0.000003   0.004775  -0.000324   0.005880
              31         32         33         34         35         36
     1  C   -0.000000  -0.000000   0.000000  -0.000000   0.000000  -0.000000
     2  C   -0.000000   0.000000  -0.000000   0.000000   0.000000   0.000000
     3  C   -0.000000  -0.000000   0.000000   0.000000   0.000000  -0.000000
     4  C    0.000000  -0.000000  -0.000000  -0.000000  -0.000000  -0.000000
     5  N   -0.000000   0.000000   0.000002   0.000014  -0.000000   0.000000
     6  C    0.000051  -0.000004   0.000374  -0.000001   0.000001   0.000001
     7  C   -0.000293   0.000091   0.000574   0.000007  -0.000169   0.000020
     8  C   -0.006484   0.005000  -0.004286  -0.004583   0.004966  -0.006281
     9  C   -0.033595  -0.030957  -0.030572  -0.029906  -0.029390  -0.034940
    10  C    0.371553   0.372132   0.368212   0.005663  -0.004143  -0.005611
    11  C   -0.004770  -0.005252   0.005551   0.368623   0.369156   0.371715
    12  N    0.000000  -0.000000  -0.000000  -0.000050   0.000000  -0.000000
    13  N   -0.000000  -0.000000   0.000000  -0.000051   0.000003  -0.000001
    14  N   -0.000000   0.000001  -0.000000   0.002655  -0.000019   0.000011
    15  H   -0.000000   0.000000   0.000000   0.000000   0.000000   0.000000
    16  H   -0.000000   0.000000  -0.000000   0.000000   0.000000   0.000000
    17  H    0.000000  -0.000000   0.000000  -0.000000  -0.000000  -0.000000
    18  H   -0.000000   0.000000   0.000000   0.000000  -0.000000  -0.000000
    19  H    0.000000  -0.000000  -0.000000  -0.000000  -0.000000   0.000000
    20  H    0.000000   0.000000   0.000000  -0.000000   0.000000  -0.000000
    21  H   -0.000000  -0.000000   0.000000  -0.000000   0.000000  -0.000000
    22  H    0.000000  -0.000000  -0.000000   0.000000  -0.000000   0.000000
    23  H   -0.000000   0.000000   0.000000   0.000000  -0.000000  -0.000000
    24  H   -0.000001   0.000003   0.000124   0.000014   0.000013   0.000004
    25  H    0.000001   0.000000  -0.000029   0.000000  -0.000000   0.000000
    26  H    0.000277  -0.000157   0.004370   0.000007   0.000000   0.000002
    27  H   -0.000052   0.000001  -0.000061  -0.000001   0.000003  -0.000003
    28  H    0.006194  -0.000025  -0.000068  -0.000331  -0.000087   0.004775
    29  H   -0.000003  -0.000161  -0.000084   0.005280   0.000026  -0.000324
    30  H    0.005811  -0.002622  -0.003826  -0.003566  -0.003589   0.005880
    31  H    0.581315  -0.031142  -0.031725  -0.000074  -0.000230   0.004689
    32  H   -0.031142   0.576787  -0.030748   0.000033   0.004764  -0.000223
    33  H   -0.031725  -0.030748   0.584858  -0.000204  -0.000043  -0.000021
    34  H   -0.000074   0.000033  -0.000204   0.567317  -0.028841  -0.030853
    35  H   -0.000230   0.004764  -0.000043  -0.028841   0.580711  -0.032255
    36  H    0.004689  -0.000223  -0.000021  -0.030853  -0.032255   0.588716
 Mulliken charges:
               1
     1  C   -0.452327
     2  C   -0.245161
     3  C    0.048733
     4  C   -0.451027
     5  N   -0.285210
     6  C   -0.158195
     7  C   -0.256431
     8  C   -0.260168
     9  C   -0.074533
    10  C   -0.444183
    11  C   -0.441056
    12  N   -0.205653
    13  N    0.382811
    14  N   -0.300358
    15  H    0.149528
    16  H    0.147840
    17  H    0.138593
    18  H    0.152175
    19  H    0.134287
    20  H    0.138741
    21  H    0.165305
    22  H    0.151209
    23  H    0.144813
    24  H    0.161171
    25  H    0.148239
    26  H    0.132994
    27  H    0.138355
    28  H    0.127656
    29  H    0.139452
    30  H    0.131172
    31  H    0.138477
    32  H    0.142480
    33  H    0.137602
    34  H    0.148848
    35  H    0.139124
    36  H    0.134698
 Sum of Mulliken charges =   0.00000
 Mulliken charges with hydrogens summed into heavy atoms:
               1
     1  C   -0.016367
     2  C    0.041301
     3  C    0.187474
     4  C    0.010299
     5  N   -0.285210
     6  C    0.151215
     7  C    0.014918
     8  C    0.006940
     9  C    0.056639
    10  C   -0.025624
    11  C   -0.018385
    12  N   -0.205653
    13  N    0.382811
    14  N   -0.300358
 Electronic spatial extent (au):  <R**2>=           4023.4633
 Charge=             -0.0000 electrons
 Dipole moment (field-independent basis, Debye):
    X=              1.1901    Y=             -2.6201    Z=             -0.3042  Tot=              2.8938
 Quadrupole moment (field-independent basis, Debye-Ang):
   XX=            -88.2252   YY=            -93.8681   ZZ=            -88.3079
   XY=              1.3630   XZ=             -0.3944   YZ=              0.9144
 Traceless Quadrupole moment (field-independent basis, Debye-Ang):
   XX=              1.9086   YY=             -3.7344   ZZ=              1.8258
   XY=              1.3630   XZ=             -0.3944   YZ=              0.9144
 Octapole moment (field-independent basis, Debye-Ang**2):
  XXX=             15.1575  YYY=             -8.7079  ZZZ=             -2.5226  XYY=             11.6723
  XXY=             -2.3848  XXZ=             -0.4223  XZZ=              2.5541  YZZ=              0.5362
  YYZ=              4.7331  XYZ=             -0.4973
 Hexadecapole moment (field-independent basis, Debye-Ang**3):
 XXXX=          -4147.4570 YYYY=           -942.5490 ZZZZ=           -467.8374 XXXY=             13.3456
 XXXZ=              9.1922 YYYX=             24.1086 YYYZ=             14.2192 ZZZX=             -1.5397
 ZZZY=             -0.8572 XXYY=           -864.0621 XXZZ=           -762.8916 YYZZ=           -229.5470
 XXYZ=            -11.9722 YYXZ=            -11.2861 ZZXY=              1.5805
 N-N= 9.567544908322D+02 E-N=-3.334306553361D+03  KE= 6.072805434697D+02
 Calling FoFJK, ICntrl=      2127 FMM=F ISym2X=0 I1Cent= 0 IOpClX= 0 NMat=1 NMatS=1 NMatT=0.
 ***** Axes restored to original set *****
 -------------------------------------------------------------------
 Center     Atomic                   Forces (Hartrees/Bohr)
 Number     Number              X              Y              Z
 -------------------------------------------------------------------
      1        6          -0.000677976    0.001154115   -0.003260044
      2        6           0.001642481   -0.001580740   -0.002417158
      3        6          -0.018961081   -0.005138915   -0.000383911
      4        6          -0.001105491    0.004712856    0.000490881
      5        7           0.026413932   -0.004017616    0.012061415
      6        6           0.000186480    0.006252380   -0.009911231
      7        6          -0.000701745    0.000755451    0.006244800
      8        6           0.001801873   -0.002798643   -0.000653192
      9        6          -0.000944236    0.005758410    0.004885821
     10        6           0.001689659   -0.003264637   -0.002750428
     11        6          -0.003769114   -0.001640941   -0.002404414
     12        7          -0.031018423   -0.006472843    0.004347858
     13        7           0.047124022    0.030503885   -0.034108766
     14        7          -0.021820739   -0.017482713    0.020721717
     15        1           0.001226497    0.001305462   -0.000773058
     16        1           0.001132980    0.000693134   -0.001084850
     17        1           0.001998361    0.001058053   -0.000633010
     18        1          -0.000852893    0.000372845    0.003873997
     19        1          -0.000599429   -0.000124440    0.003273487
     20        1          -0.002460191   -0.004808258    0.004128403
     21        1           0.000276366   -0.001592787    0.000094327
     22        1           0.000433056   -0.001346130   -0.000047525
     23        1           0.000220452   -0.000366477   -0.001234064
     24        1          -0.003008562    0.000425673    0.000772075
     25        1           0.000643912   -0.001250926   -0.000091811
     26        1           0.001558345   -0.001426742    0.000740557
     27        1           0.000500974   -0.001592880   -0.003064312
     28        1          -0.000918158    0.000087932    0.001543246
     29        1          -0.001391899   -0.000344411   -0.000765647
     30        1          -0.001160447   -0.000785920   -0.002583712
     31        1           0.000434850    0.001150096    0.000592023
     32        1          -0.000224059    0.000075111    0.000448218
     33        1           0.002393640    0.000151836    0.000389178
     34        1          -0.000738959    0.000424810   -0.000005103
     35        1          -0.000200689    0.000153996    0.000895038
     36        1           0.000876210    0.000999974    0.000669194
 -------------------------------------------------------------------
 Cartesian Forces:  Max     0.047124022 RMS     0.008755393

 GradGradGradGradGradGradGradGradGradGradGradGradGradGradGradGradGradGrad
 Berny optimization.
 FormGI is forming the generalized inverse of G from B-inverse, IUseBI=4.
 Internal  Forces:  Max     0.034266572 RMS     0.004342635
 Search for a local minimum.
 Step number   1 out of a maximum of  197
 All quantities printed in internal units (Hartrees-Bohrs-Radians)
 Mixed Optimization -- RFO/linear search
 Second derivative matrix not updated -- first step.
 ITU=  0
     Eigenvalues ---    0.00230   0.00241   0.00311   0.00347   0.00352
     Eigenvalues ---    0.00368   0.00368   0.00480   0.00674   0.00821
     Eigenvalues ---    0.00878   0.01555   0.03204   0.03300   0.03414
     Eigenvalues ---    0.03610   0.03732   0.03999   0.04517   0.04673
     Eigenvalues ---    0.04705   0.04720   0.04720   0.04753   0.04799
     Eigenvalues ---    0.05007   0.05387   0.05438   0.05438   0.05475
     Eigenvalues ---    0.05536   0.05553   0.05554   0.05558   0.05713
     Eigenvalues ---    0.05995   0.08530   0.08672   0.08734   0.09579
     Eigenvalues ---    0.12345   0.12451   0.12503   0.12950   0.16000
     Eigenvalues ---    0.16000   0.16000   0.16000   0.16000   0.16000
     Eigenvalues ---    0.16000   0.16000   0.16000   0.16000   0.16000
     Eigenvalues ---    0.16000   0.16328   0.16860   0.17183   0.18082
     Eigenvalues ---    0.21898   0.21923   0.21925   0.21941   0.24942
     Eigenvalues ---    0.24978   0.25000   0.28289   0.28544   0.29024
     Eigenvalues ---    0.29269   0.29305   0.29413   0.29417   0.30212
     Eigenvalues ---    0.33889   0.33952   0.33965   0.34003   0.34016
     Eigenvalues ---    0.34017   0.34065   0.34166   0.34178   0.34196
     Eigenvalues ---    0.34214   0.34218   0.34220   0.34234   0.34241
     Eigenvalues ---    0.34267   0.34288   0.34299   0.34326   0.34372
     Eigenvalues ---    0.34377   0.34516   0.34920   0.36242   0.49036
     Eigenvalues ---    0.83902   1.41034
 RFO step:  Lambda=-1.23532315D-02 EMin= 2.30000000D-03
 Linear search not attempted -- first point.
 Iteration  1 RMS(Cart)=  0.14001909 RMS(Int)=  0.00352083
 Iteration  2 RMS(Cart)=  0.00947251 RMS(Int)=  0.00018418
 Iteration  3 RMS(Cart)=  0.00001552 RMS(Int)=  0.00018406
 Iteration  4 RMS(Cart)=  0.00000000 RMS(Int)=  0.00018406
 Variable       Old X    -DE/DX   Delta X   Delta X   Delta X     New X
                                 (Linear)    (Quad)   (Total)
    R1        2.87543   0.00797   0.00000   0.02535   0.02535   2.90078
    R2        2.06699   0.00095   0.00000   0.00266   0.00266   2.06965
    R3        2.06882   0.00046   0.00000   0.00128   0.00128   2.07011
    R4        2.06828   0.00184   0.00000   0.00519   0.00519   2.07347
    R5        2.90963  -0.00077   0.00000  -0.00260  -0.00260   2.90703
    R6        2.07301  -0.00020   0.00000  -0.00056  -0.00056   2.07245
    R7        2.07410   0.00018   0.00000   0.00050   0.00050   2.07460
    R8        2.89140   0.00136   0.00000   0.00445   0.00445   2.89585
    R9        2.79105  -0.01215   0.00000  -0.03360  -0.03360   2.75745
   R10        2.07390  -0.00178   0.00000  -0.00504  -0.00504   2.06885
   R11        2.06964  -0.00034   0.00000  -0.00097  -0.00097   2.06867
   R12        2.07051  -0.00053   0.00000  -0.00150  -0.00150   2.06902
   R13        2.06784   0.00065   0.00000   0.00183   0.00183   2.06967
   R14        2.77004  -0.00653   0.00000  -0.01743  -0.01743   2.75262
   R15        2.60850   0.00545   0.00000   0.01085   0.01085   2.61935
   R16        2.89445   0.00148   0.00000   0.00486   0.00486   2.89931
   R17        2.06468   0.00131   0.00000   0.00368   0.00368   2.06835
   R18        2.07304   0.00098   0.00000   0.00277   0.00277   2.07581
   R19        2.89953   0.00163   0.00000   0.00540   0.00540   2.90493
   R20        2.06925   0.00216   0.00000   0.00610   0.00610   2.07535
   R21        2.07325  -0.00009   0.00000  -0.00026  -0.00026   2.07299
   R22        2.91510  -0.00189   0.00000  -0.00641  -0.00641   2.90869
   R23        2.07518   0.00064   0.00000   0.00183   0.00183   2.07701
   R24        2.07220   0.00134   0.00000   0.00379   0.00379   2.07599
   R25        2.89150   0.00324   0.00000   0.01057   0.01057   2.90207
   R26        2.89371   0.00235   0.00000   0.00770   0.00770   2.90141
   R27        2.06847   0.00246   0.00000   0.00692   0.00692   2.07539
   R28        2.06960   0.00134   0.00000   0.00378   0.00378   2.07338
   R29        2.07031   0.00028   0.00000   0.00079   0.00079   2.07111
   R30        2.06706   0.00145   0.00000   0.00407   0.00407   2.07113
   R31        2.06937   0.00072   0.00000   0.00203   0.00203   2.07140
   R32        2.07000   0.00043   0.00000   0.00121   0.00121   2.07121
   R33        2.06971   0.00138   0.00000   0.00390   0.00390   2.07361
   R34        2.35877  -0.02832   0.00000  -0.03326  -0.03326   2.32551
   R35        2.15629   0.03427   0.00000   0.02409   0.02409   2.18038
    A1        1.94607   0.00149   0.00000   0.00851   0.00846   1.95453
    A2        1.92058   0.00187   0.00000   0.01241   0.01234   1.93293
    A3        1.93771   0.00114   0.00000   0.00520   0.00519   1.94290
    A4        1.87819  -0.00136   0.00000  -0.00525  -0.00534   1.87285
    A5        1.89398  -0.00183   0.00000  -0.01348  -0.01348   1.88050
    A6        1.88524  -0.00152   0.00000  -0.00854  -0.00857   1.87667
    A7        1.98555   0.00161   0.00000   0.00740   0.00752   1.99307
    A8        1.90301   0.00170   0.00000   0.01814   0.01813   1.92115
    A9        1.88901   0.00171   0.00000   0.02331   0.02330   1.91232
   A10        1.92408  -0.00310   0.00000  -0.02978  -0.02990   1.89418
   A11        1.90216  -0.00236   0.00000  -0.01990  -0.02012   1.88204
   A12        1.85520   0.00045   0.00000   0.00131   0.00053   1.85573
   A13        1.97259  -0.00247   0.00000   0.00011  -0.00016   1.97243
   A14        1.91936   0.00359   0.00000   0.02292   0.02287   1.94223
   A15        1.89132   0.00006   0.00000  -0.00053  -0.00043   1.89089
   A16        1.93607   0.00016   0.00000   0.00639   0.00619   1.94226
   A17        1.87154   0.00242   0.00000   0.01864   0.01860   1.89014
   A18        1.86887  -0.00393   0.00000  -0.05116  -0.05102   1.81785
   A19        1.94735  -0.00194   0.00000  -0.01294  -0.01298   1.93437
   A20        1.93112  -0.00128   0.00000  -0.00672  -0.00676   1.92437
   A21        1.94162  -0.00029   0.00000  -0.00075  -0.00076   1.94087
   A22        1.87827   0.00143   0.00000   0.00648   0.00641   1.88467
   A23        1.88538   0.00102   0.00000   0.00463   0.00461   1.88999
   A24        1.87728   0.00128   0.00000   0.01060   0.01060   1.88789
   A25        2.08054   0.01403   0.00000   0.05333   0.05330   2.13384
   A26        2.03439  -0.01186   0.00000  -0.04546  -0.04546   1.98892
   A27        2.16628  -0.00218   0.00000  -0.00851  -0.00852   2.15776
   A28        1.96865   0.00289   0.00000   0.01069   0.00961   1.97826
   A29        1.92998  -0.00371   0.00000  -0.04638  -0.04679   1.88319
   A30        1.86053   0.00138   0.00000   0.03544   0.03473   1.89526
   A31        1.95328  -0.00174   0.00000  -0.02837  -0.02893   1.92436
   A32        1.90350   0.00051   0.00000   0.02639   0.02559   1.92909
   A33        1.84081   0.00077   0.00000   0.00693   0.00771   1.84852
   A34        2.00125  -0.00399   0.00000  -0.01909  -0.01914   1.98210
   A35        1.89967   0.00110   0.00000   0.00611   0.00628   1.90594
   A36        1.90955  -0.00115   0.00000  -0.02206  -0.02208   1.88747
   A37        1.91190   0.00206   0.00000   0.01958   0.01955   1.93144
   A38        1.88769   0.00263   0.00000   0.01202   0.01155   1.89925
   A39        1.84761  -0.00040   0.00000   0.00518   0.00501   1.85262
   A40        2.01088   0.00218   0.00000   0.00963   0.00955   2.02043
   A41        1.88485   0.00090   0.00000   0.01703   0.01699   1.90183
   A42        1.90269  -0.00107   0.00000  -0.01019  -0.01014   1.89254
   A43        1.89525  -0.00138   0.00000  -0.00325  -0.00346   1.89179
   A44        1.91461  -0.00118   0.00000  -0.01441  -0.01443   1.90018
   A45        1.84848   0.00047   0.00000   0.00117   0.00118   1.84966
   A46        1.96198  -0.00152   0.00000  -0.00501  -0.00515   1.95682
   A47        1.91674  -0.00012   0.00000   0.00271   0.00266   1.91940
   A48        1.91427  -0.00025   0.00000  -0.01566  -0.01569   1.89858
   A49        1.91176   0.00255   0.00000   0.02193   0.02192   1.93368
   A50        1.88245   0.00020   0.00000   0.00203   0.00197   1.88442
   A51        1.87431  -0.00082   0.00000  -0.00614  -0.00621   1.86811
   A52        1.94245  -0.00099   0.00000  -0.00853  -0.00853   1.93393
   A53        1.93258  -0.00026   0.00000  -0.00059  -0.00064   1.93193
   A54        1.94505   0.00251   0.00000   0.01642   0.01640   1.96146
   A55        1.88317   0.00014   0.00000  -0.00281  -0.00284   1.88032
   A56        1.88917  -0.00106   0.00000  -0.00787  -0.00782   1.88135
   A57        1.86857  -0.00040   0.00000   0.00311   0.00303   1.87160
   A58        1.93467   0.00071   0.00000   0.00522   0.00520   1.93987
   A59        1.93340   0.00099   0.00000   0.00646   0.00644   1.93984
   A60        1.94316  -0.00120   0.00000  -0.00877  -0.00876   1.93440
   A61        1.87818  -0.00039   0.00000   0.00122   0.00117   1.87935
   A62        1.88696   0.00006   0.00000  -0.00104  -0.00103   1.88592
   A63        1.88521  -0.00019   0.00000  -0.00314  -0.00313   1.88208
   A64        2.08597  -0.01975   0.00000  -0.07527  -0.07527   2.01070
   A65        3.16361   0.00991   0.00000   0.16648   0.16648   3.33009
   A66        3.13757  -0.00796   0.00000  -0.13374  -0.13374   3.00383
    D1       -1.14619   0.00065   0.00000   0.01153   0.01159  -1.13460
    D2        1.00913  -0.00096   0.00000  -0.00825  -0.00831   1.00082
    D3        3.02016   0.00138   0.00000   0.01536   0.01543   3.03559
    D4        3.05425   0.00017   0.00000   0.00451   0.00453   3.05878
    D5       -1.07361  -0.00144   0.00000  -0.01528  -0.01538  -1.08899
    D6        0.93742   0.00090   0.00000   0.00833   0.00836   0.94578
    D7        0.96804   0.00013   0.00000   0.00379   0.00381   0.97185
    D8        3.12336  -0.00148   0.00000  -0.01600  -0.01609   3.10727
    D9       -1.14879   0.00086   0.00000   0.00761   0.00765  -1.14115
   D10        1.12631  -0.00025   0.00000  -0.01973  -0.01976   1.10655
   D11       -2.98279   0.00090   0.00000   0.00630   0.00635  -2.97644
   D12       -0.94537  -0.00180   0.00000  -0.04267  -0.04263  -0.98800
   D13       -1.01751  -0.00128   0.00000  -0.02615  -0.02603  -1.04354
   D14        1.15658  -0.00013   0.00000  -0.00013   0.00007   1.15665
[...]
   284    N   13  dyz    Ryd( 3d)     0.00165       2.69114
   285    N   13  dx2y2  Ryd( 3d)     0.00135       2.79100
   286    N   13  dz2    Ryd( 3d)     0.00064       2.46231
 
   287    N   14  S      Cor( 1S)     0.99982     -14.01326
   288    N   14  S      Val( 2S)     0.80747      -0.44450
   289    N   14  S      Ryd( 4S)     0.00342       1.37973
   290    N   14  S      Ryd( 3S)     0.00001       0.68745
   291    N   14  S      Ryd( 5S)     0.00000      35.44339
   292    N   14  px     Val( 2p)     0.54477      -0.03388
   293    N   14  px     Ryd( 3p)     0.00155       0.58078
   294    N   14  px     Ryd( 4p)     0.00020       1.38040
   295    N   14  px     Ryd( 5p)     0.00002       3.37727
   296    N   14  py     Val( 2p)     0.57638      -0.00006
   297    N   14  py     Ryd( 3p)     0.00169       0.54679
   298    N   14  py     Ryd( 4p)     0.00020       1.33339
   299    N   14  py     Ryd( 5p)     0.00004       3.53841
   300    N   14  pz     Val( 2p)     0.55381      -0.04165
   301    N   14  pz     Ryd( 3p)     0.00168       0.58358
   302    N   14  pz     Ryd( 4p)     0.00014       1.26281
   303    N   14  pz     Ryd( 5p)     0.00002       3.40576
   304    N   14  dxy    Ryd( 3d)     0.00092       2.82884
   305    N   14  dxz    Ryd( 3d)     0.00037       2.24312
   306    N   14  dyz    Ryd( 3d)     0.00112       2.55170
   307    N   14  dx2y2  Ryd( 3d)     0.00113       2.68641
   308    N   14  dz2    Ryd( 3d)     0.00040       2.41265
 
   309    H   15  S      Val( 1S)     0.40409       0.14002
   310    H   15  S      Ryd( 2S)     0.00034       0.45098
   311    H   15  S      Ryd( 4S)     0.00032       1.43357
   312    H   15  S      Ryd( 3S)     0.00002       1.27809
   313    H   15  px     Ryd( 2p)     0.00009       2.15719
   314    H   15  py     Ryd( 2p)     0.00008       2.06834
   315    H   15  pz     Ryd( 2p)     0.00011       2.36835
 
   316    H   16  S      Val( 1S)     0.40214       0.14038
   317    H   16  S      Ryd( 2S)     0.00027       0.36268
   318    H   16  S      Ryd( 4S)     0.00027       1.49674
   319    H   16  S      Ryd( 3S)     0.00001       1.22839
   320    H   16  px     Ryd( 2p)     0.00010       2.33549
   321    H   16  py     Ryd( 2p)     0.00008       1.96530
   322    H   16  pz     Ryd( 2p)     0.00010       2.24577
 
   323    H   17  S      Val( 1S)     0.39961       0.13848
   324    H   17  S      Ryd( 2S)     0.00130       0.34902
   325    H   17  S      Ryd( 4S)     0.00036       1.51822
   326    H   17  S      Ryd( 3S)     0.00002       1.15298
   327    H   17  px     Ryd( 2p)     0.00007       2.01147
   328    H   17  py     Ryd( 2p)     0.00012       2.54009
   329    H   17  pz     Ryd( 2p)     0.00008       2.02237
 
   330    H   18  S      Val( 1S)     0.39674       0.16130
   331    H   18  S      Ryd( 2S)     0.00071       0.76954
   332    H   18  S      Ryd( 4S)     0.00024       1.96050
   333    H   18  S      Ryd( 3S)     0.00002       0.84519
   334    H   18  px     Ryd( 2p)     0.00008       2.18257
   335    H   18  py     Ryd( 2p)     0.00015       2.56333
   336    H   18  pz     Ryd( 2p)     0.00007       2.08394
 
   337    H   19  S      Val( 1S)     0.40340       0.14963
   338    H   19  S      Ryd( 2S)     0.00061       0.49387
   339    H   19  S      Ryd( 4S)     0.00035       1.96873
   340    H   19  S      Ryd( 3S)     0.00002       0.98366
   341    H   19  px     Ryd( 2p)     0.00009       2.04094
   342    H   19  py     Ryd( 2p)     0.00008       2.24367
   343    H   19  pz     Ryd( 2p)     0.00013       2.52111
 
   344    H   20  S      Val( 1S)     0.40131       0.15130
   345    H   20  S      Ryd( 2S)     0.00092       0.64124
   346    H   20  S      Ryd( 3S)     0.00116       1.31120
   347    H   20  S      Ryd( 4S)     0.00016       2.53463
   348    H   20  px     Ryd( 2p)     0.00007       2.21397
   349    H   20  py     Ryd( 2p)     0.00015       2.66037
   350    H   20  pz     Ryd( 2p)     0.00009       2.20231
 
   351    H   21  S      Val( 1S)     0.39842       0.15131
   352    H   21  S      Ryd( 2S)     0.00058       0.59840
   353    H   21  S      Ryd( 4S)     0.00015       1.73624
   354    H   21  S      Ryd( 3S)     0.00003       1.15139
   355    H   21  px     Ryd( 2p)     0.00008       2.18837
   356    H   21  py     Ryd( 2p)     0.00011       2.53391
   357    H   21  pz     Ryd( 2p)     0.00010       1.97340
 
   358    H   22  S      Val( 1S)     0.39480       0.15628
   359    H   22  S      Ryd( 2S)     0.00039       0.74055
   360    H   22  S      Ryd( 4S)     0.00048       1.57156
   361    H   22  S      Ryd( 3S)     0.00003       1.05224
   362    H   22  px     Ryd( 2p)     0.00013       2.46749
   363    H   22  py     Ryd( 2p)     0.00006       1.97133
   364    H   22  pz     Ryd( 2p)     0.00007       2.20923
 
   365    H   23  S      Val( 1S)     0.40096       0.14642
   366    H   23  S      Ryd( 2S)     0.00014       0.46329
   367    H   23  S      Ryd( 4S)     0.00021       1.44555
   368    H   23  S      Ryd( 3S)     0.00003       1.26055
   369    H   23  px     Ryd( 2p)     0.00009       2.23893
   370    H   23  py     Ryd( 2p)     0.00010       2.14369
   371    H   23  pz     Ryd( 2p)     0.00009       2.25862
 
   372    H   24  S      Val( 1S)     0.40291       0.14863
   373    H   24  S      Ryd( 3S)     0.00071       0.76013
   374    H   24  S      Ryd( 4S)     0.00017       2.35599
   375    H   24  S      Ryd( 2S)     0.00001       0.62653
   376    H   24  px     Ryd( 2p)     0.00010       2.34618
   377    H   24  py     Ryd( 2p)     0.00013       2.30736
   378    H   24  pz     Ryd( 2p)     0.00009       2.17878
 
   379    H   25  S      Val( 1S)     0.41238       0.14162
   380    H   25  S      Ryd( 3S)     0.00064       1.27463
   381    H   25  S      Ryd( 4S)     0.00029       1.53326
   382    H   25  S      Ryd( 2S)     0.00002       0.84275
   383    H   25  px     Ryd( 2p)     0.00012       2.31828
   384    H   25  py     Ryd( 2p)     0.00007       2.09725
   385    H   25  pz     Ryd( 2p)     0.00011       2.50239
 
   386    H   26  S      Val( 1S)     0.40283       0.14091
   387    H   26  S      Ryd( 2S)     0.00029       0.42993
   388    H   26  S      Ryd( 4S)     0.00034       1.82494
   389    H   26  S      Ryd( 3S)     0.00001       1.20408
   390    H   26  px     Ryd( 2p)     0.00010       2.20761
   391    H   26  py     Ryd( 2p)     0.00009       2.10847
   392    H   26  pz     Ryd( 2p)     0.00011       2.42391
 
   393    H   27  S      Val( 1S)     0.39898       0.14646
   394    H   27  S      Ryd( 2S)     0.00052       0.50276
   395    H   27  S      Ryd( 4S)     0.00046       1.71131
   396    H   27  S      Ryd( 3S)     0.00002       1.19212
   397    H   27  px     Ryd( 2p)     0.00010       2.31164
   398    H   27  py     Ryd( 2p)     0.00011       2.47815
   399    H   27  pz     Ryd( 2p)     0.00007       1.98424
 
   400    H   28  S      Val( 1S)     0.40550       0.14336
   401    H   28  S      Ryd( 2S)     0.00031       0.42721
   402    H   28  S      Ryd( 4S)     0.00043       1.72585
   403    H   28  S      Ryd( 3S)     0.00001       1.13843
   404    H   28  px     Ryd( 2p)     0.00008       2.15750
   405    H   28  py     Ryd( 2p)     0.00013       2.61602
   406    H   28  pz     Ryd( 2p)     0.00008       2.04762
 
   407    H   29  S      Val( 1S)     0.39664       0.15986
   408    H   29  S      Ryd( 2S)     0.00069       0.57476
   409    H   29  S      Ryd( 4S)     0.00044       2.02318
   410    H   29  S      Ryd( 3S)     0.00002       0.95102
   411    H   29  px     Ryd( 2p)     0.00010       2.31113
   412    H   29  py     Ryd( 2p)     0.00007       1.98676
   413    H   29  pz     Ryd( 2p)     0.00012       2.59489
 
   414    H   30  S      Val( 1S)     0.39654       0.16399
   415    H   30  S      Ryd( 2S)     0.00122       0.92369
   416    H   30  S      Ryd( 3S)     0.00040       1.77912
   417    H   30  S      Ryd( 4S)     0.00015       2.94646
   418    H   30  px     Ryd( 2p)     0.00011       2.18941
   419    H   30  py     Ryd( 2p)     0.00015       2.70696
   420    H   30  pz     Ryd( 2p)     0.00008       2.01602
 
   421    H   31  S      Val( 1S)     0.40465       0.12934
   422    H   31  S      Ryd( 2S)     0.00014       0.37722
   423    H   31  S      Ryd( 4S)     0.00035       1.53140
   424    H   31  S      Ryd( 3S)     0.00001       1.16681
   425    H   31  px     Ryd( 2p)     0.00009       2.16639
   426    H   31  py     Ryd( 2p)     0.00012       2.54768
   427    H   31  pz     Ryd( 2p)     0.00007       1.88171
 
   428    H   32  S      Val( 1S)     0.40200       0.13471
   429    H   32  S      Ryd( 2S)     0.00011       0.51039
   430    H   32  S      Ryd( 4S)     0.00029       1.38066
   431    H   32  S      Ryd( 3S)     0.00002       1.23791
   432    H   32  px     Ryd( 2p)     0.00010       2.29415
   433    H   32  py     Ryd( 2p)     0.00012       2.37094
   434    H   32  pz     Ryd( 2p)     0.00007       1.88907
 
   435    H   33  S      Val( 1S)     0.40183       0.13625
   436    H   33  S      Ryd( 2S)     0.00019       0.62680
   437    H   33  S      Ryd( 4S)     0.00025       1.65178
   438    H   33  S      Ryd( 3S)     0.00002       1.01765
   439    H   33  px     Ryd( 2p)     0.00008       2.08191
   440    H   33  py     Ryd( 2p)     0.00008       1.90111
   441    H   33  pz     Ryd( 2p)     0.00012       2.62567
 
   442    H   34  S      Val( 1S)     0.39870       0.14307
   443    H   34  S      Ryd( 2S)     0.00024       0.49861
   444    H   34  S      Ryd( 3S)     0.00032       1.11748
   445    H   34  S      Ryd( 4S)     0.00004       1.66444
   446    H   34  px     Ryd( 2p)     0.00010       2.19652
   447    H   34  py     Ryd( 2p)     0.00007       1.94513
   448    H   34  pz     Ryd( 2p)     0.00011       2.43512
 
   449    H   35  S      Val( 1S)     0.40294       0.13622
   450    H   35  S      Ryd( 2S)     0.00016       0.42051
   451    H   35  S      Ryd( 3S)     0.00032       1.07345
   452    H   35  S      Ryd( 4S)     0.00004       1.76443
   453    H   35  px     Ryd( 2p)     0.00010       2.27243
   454    H   35  py     Ryd( 2p)     0.00012       2.43867
   455    H   35  pz     Ryd( 2p)     0.00007       1.86543
 
   456    H   36  S      Val( 1S)     0.40567       0.13035
   457    H   36  S      Ryd( 2S)     0.00023       0.40642
   458    H   36  S      Ryd( 3S)     0.00041       1.18919
   459    H   36  S      Ryd( 4S)     0.00006       1.65989
   460    H   36  px     Ryd( 2p)     0.00009       2.18186
   461    H   36  py     Ryd( 2p)     0.00012       2.48171
   462    H   36  pz     Ryd( 2p)     0.00007       1.92772

 WARNING:  Population inversion found on atom  C    1
           Population inversion found on atom  C    2
           Population inversion found on atom  C    3
           Population inversion found on atom  N    5
           Population inversion found on atom  C    7
           Population inversion found on atom  C    8
           Population inversion found on atom  C    9
           Population inversion found on atom  C   11
           Population inversion found on atom  N   13
           Population inversion found on atom  N   14
           Population inversion found on atom  H   15
           Population inversion found on atom  H   16
           Population inversion found on atom  H   17
           Population inversion found on atom  H   18
           Population inversion found on atom  H   19
           Population inversion found on atom  H   20
           Population inversion found on atom  H   21
           Population inversion found on atom  H   22
           Population inversion found on atom  H   23
           Population inversion found on atom  H   24
           Population inversion found on atom  H   25
           Population inversion found on atom  H   26
           Population inversion found on atom  H   27
           Population inversion found on atom  H   28
           Population inversion found on atom  H   29
           Population inversion found on atom  H   31
           Population inversion found on atom  H   32
           Population inversion found on atom  H   33
           Population inversion found on atom  H   34
           Population inversion found on atom  H   35
           Population inversion found on atom  H   36


 Summary of Natural Population Analysis:                  
                                                          
                                       Natural Population 
                Natural  -----------------------------------------------
    Atom  No    Charge         Core      Valence    Rydberg      Total
 -----------------------------------------------------------------------
      C    1   -0.28549      0.99967     2.28082    0.00501     3.28549
      C    2   -0.20119      0.99961     2.19316    0.00842     3.20119
      C    3   -0.00963      0.99958     1.99557    0.01447     3.00963
      C    4   -0.29103      0.99964     2.28483    0.00656     3.29103
      N    5   -0.18879      0.99970     2.67643    0.01267     3.68879
      C    6   -0.08557      0.99961     2.07483    0.01113     3.08557
      C    7   -0.19643      0.99962     2.18792    0.00889     3.19643
      C    8   -0.18781      0.99961     2.17820    0.01000     3.18781
      C    9   -0.12321      0.99961     2.11431    0.00929     3.12321
      C   10   -0.28626      0.99965     2.28098    0.00563     3.28626
      C   11   -0.27965      0.99965     2.27539    0.00460     3.27965
      N   12   -0.15610      0.99972     2.64172    0.01466     3.65610
      N   13    0.14527      0.99971     2.34030    0.01473     3.35473
      N   14    0.00483      0.99982     2.48244    0.01292     3.49517
      H   15    0.09495      0.00000     0.40409    0.00096     0.40505
      H   16    0.09702      0.00000     0.40214    0.00084     0.40298
      H   17    0.09845      0.00000     0.39961    0.00195     0.40155
      H   18    0.10199      0.00000     0.39674    0.00127     0.39801
      H   19    0.09532      0.00000     0.40340    0.00129     0.40468
      H   20    0.09614      0.00000     0.40131    0.00255     0.40386
      H   21    0.10054      0.00000     0.39842    0.00105     0.39946
      H   22    0.10404      0.00000     0.39480    0.00116     0.39596
      H   23    0.09837      0.00000     0.40096    0.00067     0.40163
      H   24    0.09588      0.00000     0.40291    0.00121     0.40412
      H   25    0.08636      0.00000     0.41238    0.00126     0.41364
      H   26    0.09623      0.00000     0.40283    0.00094     0.40377
      H   27    0.09974      0.00000     0.39898    0.00128     0.40026
      H   28    0.09346      0.00000     0.40550    0.00104     0.40654
      H   29    0.10193      0.00000     0.39664    0.00143     0.39807
      H   30    0.10135      0.00000     0.39654    0.00211     0.39865
      H   31    0.09457      0.00000     0.40465    0.00078     0.40543
      H   32    0.09729      0.00000     0.40200    0.00070     0.40271
      H   33    0.09743      0.00000     0.40183    0.00074     0.40257
      H   34    0.10042      0.00000     0.39870    0.00088     0.39958
      H   35    0.09624      0.00000     0.40294    0.00082     0.40376
      H   36    0.09335      0.00000     0.40567    0.00098     0.40665
 =======================================================================
   * Total *    0.00000     13.99519    40.83993    0.16489    55.00000

                                 Natural Population      
 --------------------------------------------------------
   Core                      13.99519 ( 99.9656% of  14)
   Valence                   40.83993 ( 99.6096% of  41)
   Natural Minimal Basis     54.83511 ( 99.7002% of  55)
   Natural Rydberg Basis      0.16489 (  0.2998% of  55)
 --------------------------------------------------------

    Atom  No          Natural Electron Configuration
 ----------------------------------------------------------------------------
      C    1      [core]2S( 0.54)2p( 1.74)
      C    2      [core]2S( 0.51)2p( 1.68)
      C    3      [core]2S( 0.47)2p( 1.52)3p( 0.01)
      C    4      [core]2S( 0.54)2p( 1.75)
      N    5      [core]2S( 0.66)2p( 2.02)3p( 0.01)
      C    6      [core]2S( 0.50)2p( 1.58)3p( 0.01)
      C    7      [core]2S( 0.51)2p( 1.68)
      C    8      [core]2S( 0.51)2p( 1.67)
      C    9      [core]2S( 0.49)2p( 1.63)
      C   10      [core]2S( 0.54)2p( 1.74)
      C   11      [core]2S( 0.54)2p( 1.74)
      N   12      [core]2S( 0.73)2p( 1.92)3p( 0.01)
      N   13      [core]2S( 0.53)2p( 1.81)3d( 0.01)4p( 0.01)
      N   14      [core]2S( 0.81)2p( 1.67)
      H   15            1S( 0.40)
      H   16            1S( 0.40)
      H   17            1S( 0.40)
      H   18            1S( 0.40)
      H   19            1S( 0.40)
      H   20            1S( 0.40)
      H   21            1S( 0.40)
      H   22            1S( 0.39)
      H   23            1S( 0.40)
      H   24            1S( 0.40)
      H   25            1S( 0.41)
      H   26            1S( 0.40)
      H   27            1S( 0.40)
      H   28            1S( 0.41)
      H   29            1S( 0.40)
      H   30            1S( 0.40)
      H   31            1S( 0.40)
      H   32            1S( 0.40)
      H   33            1S( 0.40)
      H   34            1S( 0.40)
      H   35            1S( 0.40)
      H   36            1S( 0.41)


 NBO analysis skipped by request.
 1\1\GINC-NODE305\SP\UB3LYP\6-311++G(d,p)\C10H22N4(1-,2)\VSC10255\10-De
 c-2020\0\\# B3LYP/6-311++G(d,p) empiricaldispersion=gd3bj scf=xqc pop=
 npa geom=check\\CID_149764085_JID_4191_Energie_anion\\-1,2\C,0,1.29310
 26486,0.5393991319,0.775608797\C,0,0.710140491,-0.596869686,1.62154476
 49\C,0,-0.0024351931,-0.1089678044,2.8956652994\C,0,-1.1967177929,0.80
 01412102,2.6010237884\N,0,-0.447137503,-1.1918027508,3.803587496\C,0,0
 .6168566018,-2.0391037215,4.3649867127\C,0,1.5441958743,-1.2546721089,
 5.2989730028\C,0,0.8181872649,-0.4128339538,6.3592765968\C,0,-0.205298
 2042,-1.1676094158,7.2245918437\C,0,0.4267548138,-2.3358905575,7.99132
 12024\C,0,-0.8926178099,-0.196002563,8.1916898775\N,0,-1.3604138793,-2
 .0661972639,3.0611414122\N,0,-2.4499317185,-2.1568363458,3.6597953012\
 N,0,-3.4852440037,-2.3454031785,4.0994164246\H,0,0.5104972587,1.179165
 6944,0.3550987873\H,0,1.8772109764,0.1412750766,-0.0610649154\H,0,1.95
 93216745,1.1760778244,1.3716321457\H,0,0.0037461945,-1.1875846745,1.02
 6677085\H,0,1.5235434818,-1.2760546446,1.903806456\H,0,0.7159254808,0.
 4642278694,3.4943854838\H,0,-1.9134171234,0.300731779,1.9403569466\H,0
 ,-1.7079667545,1.0591666066,3.533451702\H,0,-0.8758034239,1.7258945037
 ,2.1151488788\H,0,0.1078074723,-2.8218740996,4.9347754793\H,0,1.205311
 0369,-2.548992608,3.5869531945\H,0,2.2053356056,-1.9854336625,5.780786
 4429\H,0,2.2040488095,-0.6023690942,4.7132888441\H,0,1.5723578778,0.04
 26739266,7.0173233966\H,0,0.2989697961,0.4159465306,5.8630619691\H,0,-
 0.9781183277,-1.5680388689,6.5547587238\H,0,1.2305941645,-1.9795484266
 ,8.6489396073\H,0,-0.3167405846,-2.8404441838,8.618917742\H,0,0.855663
 0524,-3.0879710698,7.3199888047\H,0,-1.3751741757,0.6264739132,7.65091
 91854\H,0,-1.6601072272,-0.704057182,8.7868889471\H,0,-0.1659468544,0.
 2421237976,8.8883425734\\Version=ES64L-G16RevA.03\State=2-A\HF=-613.45
 03158\S2=0.752156\S2-1=0.\S2A=0.750002\RMSD=4.660e-11\Dipole=0.0636161
 ,-0.9405098,0.723641\Quadrupole=-1.9697077,10.0382818,-8.0685741,-12.2
 941629,5.1784382,5.9029898\PG=C01 [X(C10H22N4)]\\@


 THOSE WHO ARE UNABLE TO LEARN FROM PAST MEETINGS
 ARE CONDEMNED TO REPEAT THEM.
 Job cpu time:       0 days  0 hours 53 minutes 16.1 seconds.
 Elapsed time:       0 days  0 hours 13 minutes 31.9 seconds.
 File lengths (MBytes):  RWF=    260 Int=      0 D2E=      0 Chk=     24 Scr=      8
 Normal termination of Gaussian 16 at Thu Dec 10 10:16:18 2020.
