 Entering Gaussian System, Link 0=g16
 Initial command:
 /apps/brussel/CO7/skylake/software/Gaussian/G16.A.03-intel-2017b/g16/l1.exe "/scratch/brussel/102/vsc10255/3655679[3121].master01.hydra.brussel.vsc/Gau-225945.inp" -scrdir="/scratch/brussel/102/vsc10255/3655679[3121].master01.hydra.brussel.vsc/"
 Entering Link 1 = /apps/brussel/CO7/skylake/software/Gaussian/G16.A.03-intel-2017b/g16/l1.exe.bin PID=    225946.
  
 Copyright (c) 1988,1990,1992,1993,1995,1998,2003,2009,2016,
            Gaussian, Inc.  All Rights Reserved.
  
 This is part of the Gaussian(R) 16 program.  It is based on
 the Gaussian(R) 09 system (copyright 2009, Gaussian, Inc.),
 the Gaussian(R) 03 system (copyright 2003, Gaussian, Inc.),
 the Gaussian(R) 98 system (copyright 1998, Gaussian, Inc.),
 the Gaussian(R) 94 system (copyright 1995, Gaussian, Inc.),
 the Gaussian 92(TM) system (copyright 1992, Gaussian, Inc.),
 the Gaussian 90(TM) system (copyright 1990, Gaussian, Inc.),
 the Gaussian 88(TM) system (copyright 1988, Gaussian, Inc.),
 the Gaussian 86(TM) system (copyright 1986, Carnegie Mellon
 University), and the Gaussian 82(TM) system (copyright 1983,
 Carnegie Mellon University). Gaussian is a federally registered
 trademark of Gaussian, Inc.
  
 This software contains proprietary and confidential information,
 including trade secrets, belonging to Gaussian, Inc.
  
 This software is provided under written license and may be
 used, copied, transmitted, or stored only in accord with that
 written license.
  
 The following legend is applicable only to US Government
 contracts under FAR:
  
                    RESTRICTED RIGHTS LEGEND
  
 Use, reproduction and disclosure by the US Government is
 subject to restrictions as set forth in subparagraphs (a)
 and (c) of the Commercial Computer Software - Restricted
 Rights clause in FAR 52.227-19.
  
 Gaussian, Inc.
 340 Quinnipiac St., Bldg. 40, Wallingford CT 06492
  
  
 ---------------------------------------------------------------
 Warning -- This program may not be used in any manner that
 competes with the business of Gaussian, Inc. or will provide
 assistance to any competitor of Gaussian, Inc.  The licensee
 of this program is prohibited from giving any competitor of
 Gaussian, Inc. access to this program.  By using this program,
 the user acknowledges that Gaussian, Inc. is engaged in the
 business of creating and licensing software in the field of
 computational chemistry and represents and warrants to the
 licensee that it is not a competitor of Gaussian, Inc. and that
 it will not use this program in any manner prohibited above.
 ---------------------------------------------------------------
  

 Cite this work as:
 Gaussian 16, Revision A.03,
 M. J. Frisch, G. W. Trucks, H. B. Schlegel, G. E. Scuseria, 
 M. A. Robb, J. R. Cheeseman, G. Scalmani, V. Barone, 
 G. A. Petersson, H. Nakatsuji, X. Li, M. Caricato, A. V. Marenich, 
 J. Bloino, B. G. Janesko, R. Gomperts, B. Mennucci, H. P. Hratchian, 
 J. V. Ortiz, A. F. Izmaylov, J. L. Sonnenberg, D. Williams-Young, 
 F. Ding, F. Lipparini, F. Egidi, J. Goings, B. Peng, A. Petrone, 
 T. Henderson, D. Ranasinghe, V. G. Zakrzewski, J. Gao, N. Rega, 
 G. Zheng, W. Liang, M. Hada, M. Ehara, K. Toyota, R. Fukuda, 
 J. Hasegawa, M. Ishida, T. Nakajima, Y. Honda, O. Kitao, H. Nakai, 
 T. Vreven, K. Throssell, J. A. Montgomery, Jr., J. E. Peralta, 
 F. Ogliaro, M. J. Bearpark, J. J. Heyd, E. N. Brothers, K. N. Kudin, 
 V. N. Staroverov, T. A. Keith, R. Kobayashi, J. Normand, 
 K. Raghavachari, A. P. Rendell, J. C. Burant, S. S. Iyengar, 
 J. Tomasi, M. Cossi, J. M. Millam, M. Klene, C. Adamo, R. Cammi, 
 J. W. Ochterski, R. L. Martin, K. Morokuma, O. Farkas, 
 J. B. Foresman, and D. J. Fox, Gaussian, Inc., Wallingford CT, 2016.
 
 ******************************************
 Gaussian 16:  ES64L-G16RevA.03 25-Dec-2016
                30-Dec-2020 
 ******************************************
 %chk=JID_3121.chk
 %mem=8GB
 %nprocshared=4
 Will use up to    4 processors via shared memory.
 ----------------------------------------------------------------------
 # opt=(cartesian,calcfc) freq B3LYP/6-31G(d) empiricaldispersion=gd3bj
  scf=xqc
 ----------------------------------------------------------------------
 1/10=4,18=10,26=3,38=1/1,3;
 2/12=2,17=6,18=5,29=2,40=1/2;
 3/5=1,6=6,7=1,11=2,25=1,30=1,71=2,74=-5,124=41,140=1/1,2,3;
 4//1;
 5/5=2,8=3,13=1,38=5/2,8;
 8/6=4,10=90,11=11/1;
 11/6=1,8=1,9=11,15=111,16=1/1,2,10;
 10/6=1,13=1/2;
 6/7=2,8=2,9=2,10=2,28=1/1;
 7/7=1,10=1,18=20,25=1/1,2,3,16;
 1/10=4,18=10,26=3/3(2);
 2/29=1/2;
 99/12=1/99;
 2/29=1/2;
 3/5=1,6=6,7=1,11=2,25=1,30=1,71=1,74=-5,124=41/1,2,3;
 4/5=5,16=3,69=1/1;
 5/5=2,8=3,13=1,38=5/2,8;
 7/7=1/1,2,3,16;
 1/18=10,26=3/3(-5);
 2/29=1/2;
 6/7=2,8=2,9=2,10=2,19=2,28=1/1;
 99/9=1,12=1/99;
 ------------------------------
 CID_12713373_JID_3121_neutraal
 ------------------------------
 Symbolic Z-matrix:
 Charge =  0 Multiplicity = 1
 6                     3.90877   0.47377  -0.34121 
 7                     2.5959    0.61481  -0.94685 
 6                     1.86074  -0.6273   -1.1114 
 6                     1.63658  -1.49287   0.14741 
 6                     0.95823  -0.74604   1.29913 
 7                    -0.38241  -0.25895   0.96902 
 6                    -1.46312  -1.24426   0.9023 
 6                    -2.0377   -1.48229  -0.50213 
 6                    -3.0295   -0.40662  -0.95848 
 6                    -2.46322   1.01564  -1.00728 
 6                    -1.9607    1.54061   0.35344 
 6                    -0.55757   1.07197   0.70879 
 8                     0.37742   1.87747   0.73222 
 1                     4.49676  -0.26596  -0.89842 
 1                     3.9129    0.15398   0.72222 
 1                     4.43687   1.43338  -0.3937 
 1                     2.026     1.28326  -0.43078 
 1                     0.88958  -0.37543  -1.55335 
 1                     2.3904   -1.24758  -1.8492 
 1                     1.04261  -2.37551  -0.13214 
 1                     2.59728  -1.87341   0.51606 
 1                     0.87991  -1.39531   2.18046 
 1                     1.54766   0.12888   1.57892 
 1                    -2.26994  -0.95997   1.59019 
 1                    -1.04595  -2.17966   1.28516 
 1                    -2.54881  -2.45378  -0.49776 
 1                    -1.20859  -1.56581  -1.21541 
 1                    -3.891    -0.41769  -0.27669 
 1                    -3.4184   -0.67584  -1.94976 
 1                    -3.2493    1.69001  -1.36668 
 1                    -1.64931   1.07485  -1.74026 
 1                    -2.67127   1.26343   1.14152 
 1                    -1.89627   2.63172   0.33327 
 

 GradGradGradGradGradGradGradGradGradGradGradGradGradGradGradGradGradGrad
 Berny optimization.
 Initialization pass.
 No Z-matrix variables, so optimization will use Cartesian coordinates.
 Trust Radius=3.00D-01 FncErr=1.00D-07 GrdErr=1.00D-06 EigMax=2.50D+02 EigMin=1.00D-04
 Number of steps in this run=    109 maximum allowed number of steps=    198.
 GradGradGradGradGradGradGradGradGradGradGradGradGradGradGradGradGradGrad

 ---------------------------------------------------------------------------------------------------
                            Z-MATRIX (ANGSTROMS AND DEGREES)
   CD    Cent   Atom    N1       Length/X        N2       Alpha/Y        N3        Beta/Z          J
 ---------------------------------------------------------------------------------------------------
      1      1  C        0   3.908768          0.473770         -0.341210
      2      2  N        0   2.595904          0.614811         -0.946854
      3      3  C        0   1.860742         -0.627297         -1.111395
      4      4  C        0   1.636577         -1.492866          0.147411
      5      5  C        0   0.958230         -0.746043          1.299126
      6      6  N        0  -0.382407         -0.258952          0.969016
      7      7  C        0  -1.463116         -1.244262          0.902302
      8      8  C        0  -2.037700         -1.482287         -0.502129
      9      9  C        0  -3.029501         -0.406619         -0.958476
     10     10  C        0  -2.463222          1.015638         -1.007285
     11     11  C        0  -1.960700          1.540609          0.353442
     12     12  C        0  -0.557570          1.071969          0.708790
     13     13  O        0   0.377419          1.877469          0.732219
     14     14  H        0   4.496764         -0.265961         -0.898418
     15     15  H        0   3.912896          0.153976          0.722218
     16     16  H        0   4.436867          1.433376         -0.393701
     17     17  H        0   2.026003          1.283257         -0.430784
     18     18  H        0   0.889578         -0.375428         -1.553347
     19     19  H        0   2.390397         -1.247579         -1.849201
     20     20  H        0   1.042606         -2.375506         -0.132136
     21     21  H        0   2.597276         -1.873405          0.516061
     22     22  H        0   0.879906         -1.395313          2.180465
     23     23  H        0   1.547659          0.128880          1.578921
     24     24  H        0  -2.269940         -0.959967          1.590189
     25     25  H        0  -1.045949         -2.179661          1.285159
     26     26  H        0  -2.548810         -2.453780         -0.497761
     27     27  H        0  -1.208590         -1.565809         -1.215411
     28     28  H        0  -3.890996         -0.417687         -0.276689
     29     29  H        0  -3.418396         -0.675841         -1.949761
     30     30  H        0  -3.249303          1.690012         -1.366684
     31     31  H        0  -1.649311          1.074846         -1.740256
     32     32  H        0  -2.671267          1.263432          1.141521
     33     33  H        0  -1.896265          2.631719          0.333274
 ---------------------------------------------------------------------------------------------------
                         Z-Matrix orientation:                         
 ---------------------------------------------------------------------
 Center     Atomic      Atomic             Coordinates (Angstroms)
 Number     Number       Type             X           Y           Z
 ---------------------------------------------------------------------
      1          6           0        3.908768    0.473770   -0.341210
      2          7           0        2.595904    0.614811   -0.946854
      3          6           0        1.860742   -0.627297   -1.111395
      4          6           0        1.636577   -1.492866    0.147411
      5          6           0        0.958230   -0.746043    1.299126
      6          7           0       -0.382407   -0.258952    0.969016
      7          6           0       -1.463116   -1.244262    0.902302
      8          6           0       -2.037700   -1.482287   -0.502129
      9          6           0       -3.029501   -0.406619   -0.958476
     10          6           0       -2.463222    1.015638   -1.007285
     11          6           0       -1.960700    1.540609    0.353442
     12          6           0       -0.557570    1.071969    0.708790
     13          8           0        0.377419    1.877469    0.732219
     14          1           0        4.496764   -0.265961   -0.898418
     15          1           0        3.912896    0.153976    0.722218
     16          1           0        4.436867    1.433376   -0.393701
     17          1           0        2.026003    1.283257   -0.430784
     18          1           0        0.889578   -0.375428   -1.553347
     19          1           0        2.390397   -1.247579   -1.849201
     20          1           0        1.042606   -2.375506   -0.132136
     21          1           0        2.597276   -1.873405    0.516061
     22          1           0        0.879906   -1.395313    2.180465
     23          1           0        1.547659    0.128880    1.578921
     24          1           0       -2.269940   -0.959967    1.590189
     25          1           0       -1.045949   -2.179661    1.285159
     26          1           0       -2.548810   -2.453780   -0.497761
     27          1           0       -1.208590   -1.565809   -1.215411
     28          1           0       -3.890996   -0.417687   -0.276689
     29          1           0       -3.418396   -0.675841   -1.949761
     30          1           0       -3.249303    1.690012   -1.366684
     31          1           0       -1.649311    1.074846   -1.740256
     32          1           0       -2.671267    1.263432    1.141521
     33          1           0       -1.896265    2.631719    0.333274
 ---------------------------------------------------------------------
                    Distance matrix (angstroms):
                    1          2          3          4          5
     1  C    0.000000
     2  N    1.452690   0.000000
     3  C    2.449478   1.452711   0.000000
     4  C    3.044546   2.561255   1.544038   0.000000
     5  C    3.589474   3.094887   2.576672   1.531126   0.000000
     6  N    4.546180   3.647514   3.081478   2.504770   1.464083
     7  C    5.775387   4.832305   3.934927   3.199963   2.503719
     8  C    6.261991   5.105476   4.037334   3.731263   3.572418
     9  C    7.021088   5.717398   4.897608   4.916829   4.594994
    10  C    6.429583   5.075339   4.626742   4.943103   4.486578
    11  C    6.005942   4.828096   4.631305   4.710077   3.826650
    12  C    4.626934   3.590898   3.471140   3.421667   2.439531
    13  O    3.948803   3.055367   3.445724   3.645084   2.746186
    14  H    1.097006   2.095561   2.669182   3.283249   4.192959
    15  H    1.110479   2.175463   2.860745   2.867773   3.142118
    16  H    1.096580   2.089299   3.376074   4.086235   4.440320
    17  H    2.051365   1.018791   2.034886   2.862310   2.872418
    18  H    3.362428   2.063966   1.096321   2.167776   2.877268
    19  H    2.746367   2.079654   1.099837   2.148225   3.494940
    20  H    4.046847   3.466770   2.164377   1.100001   2.170433
    21  H    2.822084   2.886406   2.178045   1.097112   2.137898
    22  H    4.361917   4.094554   3.519692   2.171492   1.097472
    23  H    3.062791   2.777496   2.812050   2.164991   1.091422
    24  H    6.630410   5.709024   4.946894   4.198388   3.248317
    25  H    5.851068   5.104317   4.074575   2.993677   2.464181
    26  H    7.091923   6.007164   4.812145   4.342472   4.294706
    27  H    5.577765   4.393336   3.211296   3.155563   3.419067
    28  H    7.850807   6.602654   5.815768   5.647117   5.109403
    29  H    7.589228   6.232448   5.345513   5.533391   5.451151
    30  H    7.332723   5.958084   5.616730   6.024535   5.544749
    31  H    5.762887   4.343152   3.951358   4.577498   4.399176
    32  H    6.791091   5.703079   5.402739   5.209890   4.151636
    33  H    6.229774   5.087851   5.179127   5.433941   4.526620
                    6          7          8          9         10
     6  N    0.000000
     7  C    1.463974   0.000000
     8  C    2.529982   1.535978   0.000000
     9  C    3.277825   2.572490   1.532639   0.000000
    10  C    3.140085   3.123121   2.583773   1.531623   0.000000
    11  C    2.471510   2.881726   3.142583   2.579760   1.542628
    12  C    1.367388   2.494471   3.190820   3.328129   2.565072
    13  O    2.279847   3.627906   4.317913   4.436509   3.440620
    14  H    5.224334   6.302367   6.658507   7.527819   7.077835
    15  H    4.322158   5.557788   6.291739   7.164906   6.662471
    16  H    5.286433   6.607508   7.101610   7.710461   6.939900
    17  H    3.184068   4.509925   4.915995   5.356516   4.533995
    18  H    2.827336   3.510022   3.301386   3.964092   3.670765
    19  H    4.075313   4.735012   4.634408   5.556609   5.421125
    20  H    2.779028   2.937417   3.228470   4.597979   4.955459
    21  H    3.419084   4.126958   4.761584   5.998862   6.022939
    22  H    2.086231   2.673251   3.964379   5.110179   5.210656
    23  H    2.060959   3.377588   4.447632   5.260754   4.854067
    24  H    2.107145   1.097715   2.168997   2.716398   3.269135
    25  H    2.056540   1.093425   2.159699   3.480238   4.180179
    26  H    3.414968   2.145190   1.097748   2.152717   3.507677
    27  H    2.676224   2.157055   1.096891   2.173811   2.877722
    28  H    3.726550   2.822738   2.149163   1.098695   2.150983
    29  H    4.232054   3.504352   2.156923   1.098347   2.159102
    30  H    4.180077   4.116883   3.504129   2.147279   1.096299
    31  H    3.274785   3.520802   2.867531   2.170448   1.096906
    32  H    2.754322   2.793812   3.262203   2.706915   2.173028
    33  H    3.324442   3.941401   4.200351   3.490607   2.174915
                   11         12         13         14         15
    11  C    0.000000
    12  C    1.521404   0.000000
    13  O    2.392435   1.234335   0.000000
    14  H    6.821267   5.469869   4.921613   0.000000
    15  H    6.046311   4.563766   3.933208   1.773051   0.000000
    16  H    6.441940   5.127426   4.236040   1.773717   1.776706
    17  H    4.071246   2.831629   2.103210   2.953543   2.482953
    18  H    3.928247   3.050649   3.249871   3.667793   3.820853
    19  H    5.617622   4.540279   4.525675   2.510845   3.300690
    20  H    4.958991   3.892660   4.390601   4.119293   3.920047
    21  H    5.697112   4.320350   4.363891   2.862286   2.425620
    22  H    4.475119   3.212420   3.614002   4.882276   3.704836
    23  H    3.975344   2.465468   2.268023   3.871735   2.515734
    24  H    2.806787   2.799614   3.974376   7.243141   6.342058
    25  H    3.942750   3.338235   4.334977   6.257150   5.509347
    26  H    4.126204   4.225128   5.369859   7.388314   7.074064
    27  H    3.560450   3.329302   4.262024   5.860133   5.739485
    28  H    2.820998   3.781795   4.950253   8.412139   7.888304
    29  H    3.513157   4.278675   5.302888   7.995191   7.847032
    30  H    2.154449   3.454706   4.194478   8.002916   7.617087
    31  H    2.167365   2.681368   3.296206   6.346707   6.152229
    32  H    1.096723   2.166017   3.136727   7.607960   6.690135
    33  H    1.093197   2.089482   2.428516   7.126320   6.327467
                   16         17         18         19         20
    16  H    0.000000
    17  H    2.415818   0.000000
    18  H    4.147265   2.302791   0.000000
    19  H    3.673423   2.924008   1.760862   0.000000
    20  H    5.108523   3.800369   2.458367   2.457045   0.000000
    21  H    3.891858   3.344755   3.072884   2.455386   1.757630
    22  H    5.223005   3.912403   3.870609   4.305998   2.517017
    23  H    3.733694   2.366498   3.240139   3.789046   3.074857
    24  H    7.392237   5.250858   4.495115   5.799212   3.992883
    25  H    6.777454   4.936917   3.880546   4.743571   2.531628
    26  H    7.995029   5.907524   4.154073   5.260901   3.610828
    27  H    6.445270   4.381256   2.435881   3.668197   2.626210
    28  H    8.531906   6.158558   4.948285   6.528201   5.309838
    29  H    8.281019   5.982210   4.336592   5.837728   5.108146
    30  H    7.751759   5.373101   4.629387   6.377184   6.039290
    31  H    6.243662   3.907184   2.929878   4.660984   4.662338
    32  H    7.274019   4.953472   4.756868   6.392968   5.353216
    33  H    6.486376   4.217383   4.512559   6.179613   5.824592
                   21         22         23         24         25
    21  H    0.000000
    22  H    2.438888   0.000000
    23  H    2.498102   1.769439   0.000000
    24  H    5.067338   3.234112   3.969859   0.000000
    25  H    3.736093   2.263999   3.484603   1.754665   0.000000
    26  H    5.277013   4.477649   5.269136   2.582398   2.347879
    27  H    4.192520   3.990346   4.275181   3.060212   2.579945
    28  H    6.696659   5.454802   5.772434   2.531230   3.692995
    29  H    6.610805   6.004316   6.144988   3.732415   4.284237
    30  H    7.101067   6.257145   5.841624   4.089577   5.182799
    31  H    5.640625   5.279269   4.704509   3.951899   4.484306
    32  H    6.163481   4.556222   4.390656   2.303447   3.810142
    33  H    6.365647   5.228406   4.435815   3.823569   4.977801
                   26         27         28         29         30
    26  H    0.000000
    27  H    1.760598   0.000000
    28  H    2.448675   3.065075   0.000000
    29  H    2.454700   2.492901   1.757602   0.000000
    30  H    4.291472   3.845486   2.458100   2.442505   0.000000
    31  H    3.847609   2.728142   3.065099   2.497691   1.754411
    32  H    4.064469   3.962216   2.514999   3.724917   2.609059
    33  H    5.194106   4.526650   3.694575   4.297567   2.367991
                   31         32         33
    31  H    0.000000
    32  H    3.063429   0.000000
    33  H    2.604682   1.768078   0.000000
 Stoichiometry    C10H20N2O
 Framework group  C1[X(C10H20N2O)]
 Deg. of freedom    93
 Full point group                 C1      NOp   1
 Largest Abelian subgroup         C1      NOp   1
 Largest concise Abelian subgroup C1      NOp   1
                         Standard orientation:                         
 ---------------------------------------------------------------------
 Center     Atomic      Atomic             Coordinates (Angstroms)
 Number     Number       Type             X           Y           Z
 ---------------------------------------------------------------------
      1          6           0       -3.908768    0.473770    0.341210
      2          7           0       -2.595904    0.614811    0.946854
      3          6           0       -1.860742   -0.627297    1.111395
      4          6           0       -1.636577   -1.492866   -0.147411
      5          6           0       -0.958230   -0.746043   -1.299126
      6          7           0        0.382407   -0.258952   -0.969016
      7          6           0        1.463116   -1.244262   -0.902302
      8          6           0        2.037700   -1.482287    0.502129
      9          6           0        3.029501   -0.406619    0.958476
     10          6           0        2.463222    1.015638    1.007285
     11          6           0        1.960700    1.540609   -0.353442
     12          6           0        0.557570    1.071969   -0.708790
     13          8           0       -0.377419    1.877469   -0.732219
     14          1           0       -4.496764   -0.265961    0.898418
     15          1           0       -3.912896    0.153976   -0.722218
     16          1           0       -4.436867    1.433376    0.393701
     17          1           0       -2.026003    1.283257    0.430784
     18          1           0       -0.889578   -0.375428    1.553347
     19          1           0       -2.390397   -1.247579    1.849201
     20          1           0       -1.042606   -2.375506    0.132136
     21          1           0       -2.597276   -1.873405   -0.516061
     22          1           0       -0.879906   -1.395313   -2.180465
     23          1           0       -1.547659    0.128880   -1.578921
     24          1           0        2.269940   -0.959967   -1.590189
     25          1           0        1.045949   -2.179661   -1.285159
     26          1           0        2.548810   -2.453780    0.497761
     27          1           0        1.208590   -1.565809    1.215411
     28          1           0        3.890996   -0.417687    0.276689
     29          1           0        3.418396   -0.675841    1.949761
     30          1           0        3.249303    1.690012    1.366684
     31          1           0        1.649311    1.074846    1.740256
     32          1           0        2.671267    1.263432   -1.141521
     33          1           0        1.896265    2.631719   -0.333274
 ---------------------------------------------------------------------
 Rotational constants (GHZ):           1.2797594           0.5243472           0.4735348
 Standard basis: 6-31G(d) (6D, 7F)
 There are   235 symmetry adapted cartesian basis functions of A   symmetry.
 There are   235 symmetry adapted basis functions of A   symmetry.
   235 basis functions,   444 primitive gaussians,   235 cartesian basis functions
    51 alpha electrons       51 beta electrons
       nuclear repulsion energy       893.9639814600 Hartrees.
 NAtoms=   33 NActive=   33 NUniq=   33 SFac= 1.00D+00 NAtFMM=   60 NAOKFM=F Big=F
 Integral buffers will be    131072 words long.
 Raffenetti 2 integral format.
 Two-electron integral symmetry is turned on.
 Nuclear repulsion after empirical dispersion term =      893.9032063229 Hartrees.
 One-electron integrals computed using PRISM.
 NBasis=   235 RedAO= T EigKep=  2.76D-03  NBF=   235
 NBsUse=   235 1.00D-06 EigRej= -1.00D+00 NBFU=   235
 ExpMin= 1.61D-01 ExpMax= 5.48D+03 ExpMxC= 8.25D+02 IAcc=3 IRadAn=         5 AccDes= 0.00D+00
 Harris functional with IExCor=  402 and IRadAn=       5 diagonalized for initial guess.
 HarFok:  IExCor=  402 AccDes= 0.00D+00 IRadAn=         5 IDoV= 1 UseB2=F ITyADJ=14
 ICtDFT=  3500011 ScaDFX=  1.000000  1.000000  1.000000  1.000000
 FoFCou: FMM=F IPFlag=           0 FMFlag=      100000 FMFlg1=           0
         NFxFlg=           0 DoJE=T BraDBF=F KetDBF=T FulRan=T
         wScrn=  0.000000 ICntrl=       500 IOpCl=  0 I1Cent=   200000004 NGrid=           0
         NMat0=    1 NMatS0=      1 NMatT0=    0 NMatD0=    1 NMtDS0=    0 NMtDT0=    0
 Petite list used in FoFCou.
 Keep R1 ints in memory in canonical form, NReq=391064178.
 Requested convergence on RMS density matrix=1.00D-08 within  32 cycles.
 Requested convergence on MAX density matrix=1.00D-06.
 Requested convergence on             energy=1.00D-06.
 No special actions if energy rises.
 Integral accuracy reduced to 1.0D-05 until final iterations.
 Initial convergence to 1.0D-05 achieved.  Increase integral accuracy.
 SCF Done:  E(RB3LYP) =  -577.906264458     A.U. after   14 cycles
            NFock= 14  Conv=0.36D-08     -V/T= 2.0097
 QCSCF skips out because SCF is already converged.
 DoSCS=F DFT=T ScalE2(SS,OS)=  1.000000  1.000000
 Range of M.O.s used for correlation:     1   235
 NBasis=   235 NAE=    51 NBE=    51 NFC=     0 NFV=     0
 NROrb=    235 NOA=    51 NOB=    51 NVA=   184 NVB=   184
 Symmetrizing basis deriv contribution to polar:
 IMax=3 JMax=2 DiffMx= 0.00D+00
 G2DrvN: will do    34 centers at a time, making    1 passes.
 Calling FoFCou, ICntrl=  3107 FMM=F I1Cent=   0 AccDes= 0.00D+00.
 End of G2Drv F.D. properties file   721 does not exist.
 End of G2Drv F.D. properties file   722 does not exist.
 End of G2Drv F.D. properties file   788 does not exist.
          IDoAtm=111111111111111111111111111111111
          Differentiating once with respect to nuclear coordinates.
 Keep R1 ints in memory in canonical form, NReq=391077458.
          There are   102 degrees of freedom in the 1st order CPHF.  IDoFFX=6 NUNeed=     0.
     96 vectors produced by pass  0 Test12= 9.38D-15 1.00D-09 XBig12= 1.09D-01 7.23D-02.
 AX will form    96 AO Fock derivatives at one time.
     96 vectors produced by pass  1 Test12= 9.38D-15 1.00D-09 XBig12= 1.26D-02 2.12D-02.
     96 vectors produced by pass  2 Test12= 9.38D-15 1.00D-09 XBig12= 7.57D-05 1.15D-03.
     96 vectors produced by pass  3 Test12= 9.38D-15 1.00D-09 XBig12= 1.82D-07 4.64D-05.
     96 vectors produced by pass  4 Test12= 9.38D-15 1.00D-09 XBig12= 1.67D-10 1.25D-06.
     43 vectors produced by pass  5 Test12= 9.38D-15 1.00D-09 XBig12= 8.99D-14 2.51D-08.
 InvSVY:  IOpt=1 It=  1 EMax= 4.72D-16
 Solved reduced A of dimension   523 with   102 vectors.
 End of Minotr F.D. properties file   721 does not exist.
 End of Minotr F.D. properties file   722 does not exist.
 End of Minotr F.D. properties file   788 does not exist.

 **********************************************************************

            Population analysis using the SCF density.

 **********************************************************************

 Orbital symmetries:
       Occupied  (A) (A) (A) (A) (A) (A) (A) (A) (A) (A) (A) (A)
                 (A) (A) (A) (A) (A) (A) (A) (A) (A) (A) (A) (A)
                 (A) (A) (A) (A) (A) (A) (A) (A) (A) (A) (A) (A)
                 (A) (A) (A) (A) (A) (A) (A) (A) (A) (A) (A) (A)
                 (A) (A) (A)
       Virtual   (A) (A) (A) (A) (A) (A) (A) (A) (A) (A) (A) (A)
                 (A) (A) (A) (A) (A) (A) (A) (A) (A) (A) (A) (A)
                 (A) (A) (A) (A) (A) (A) (A) (A) (A) (A) (A) (A)
                 (A) (A) (A) (A) (A) (A) (A) (A) (A) (A) (A) (A)
                 (A) (A) (A) (A) (A) (A) (A) (A) (A) (A) (A) (A)
                 (A) (A) (A) (A) (A) (A) (A) (A) (A) (A) (A) (A)
                 (A) (A) (A) (A) (A) (A) (A) (A) (A) (A) (A) (A)
                 (A) (A) (A) (A) (A) (A) (A) (A) (A) (A) (A) (A)
                 (A) (A) (A) (A) (A) (A) (A) (A) (A) (A) (A) (A)
                 (A) (A) (A) (A) (A) (A) (A) (A) (A) (A) (A) (A)
                 (A) (A) (A) (A) (A) (A) (A) (A) (A) (A) (A) (A)
                 (A) (A) (A) (A) (A) (A) (A) (A) (A) (A) (A) (A)
                 (A) (A) (A) (A) (A) (A) (A) (A) (A) (A) (A) (A)
                 (A) (A) (A) (A) (A) (A) (A) (A) (A) (A) (A) (A)
                 (A) (A) (A) (A) (A) (A) (A) (A) (A) (A) (A) (A)
                 (A) (A) (A) (A)
 The electronic state is 1-A.
 Alpha  occ. eigenvalues --  -19.10673 -14.36107 -14.29060 -10.28007 -10.23092
 Alpha  occ. eigenvalues --  -10.21336 -10.19478 -10.19444 -10.19345 -10.19193
 Alpha  occ. eigenvalues --  -10.19126 -10.18583 -10.17864  -1.02652  -0.93356
 Alpha  occ. eigenvalues --   -0.87968  -0.81696  -0.76839  -0.76344  -0.70604
 Alpha  occ. eigenvalues --   -0.68051  -0.65392  -0.63248  -0.58390  -0.57444
 Alpha  occ. eigenvalues --   -0.53658  -0.50346  -0.48876  -0.48182  -0.45835
 Alpha  occ. eigenvalues --   -0.45360  -0.44259  -0.43606  -0.41967  -0.41700
 Alpha  occ. eigenvalues --   -0.41400  -0.40469  -0.38680  -0.38117  -0.37208
 Alpha  occ. eigenvalues --   -0.36629  -0.35677  -0.34954  -0.33937  -0.33798
 Alpha  occ. eigenvalues --   -0.33239  -0.32646  -0.32262  -0.24399  -0.23728
 Alpha  occ. eigenvalues --   -0.19485
 Alpha virt. eigenvalues --    0.02397   0.06935   0.08766   0.09505   0.09994
 Alpha virt. eigenvalues --    0.11789   0.12709   0.13634   0.14475   0.14863
 Alpha virt. eigenvalues --    0.15930   0.16319   0.16699   0.17048   0.17934
 Alpha virt. eigenvalues --    0.18184   0.18624   0.19297   0.19965   0.20213
 Alpha virt. eigenvalues --    0.21686   0.22349   0.22651   0.23641   0.24280
 Alpha virt. eigenvalues --    0.24924   0.25819   0.27089   0.27686   0.29649
 Alpha virt. eigenvalues --    0.30314   0.33322   0.36250   0.41391   0.49502
 Alpha virt. eigenvalues --    0.50444   0.50864   0.52413   0.53157   0.53905
 Alpha virt. eigenvalues --    0.54425   0.55131   0.57217   0.57740   0.58651
 Alpha virt. eigenvalues --    0.59873   0.61454   0.62565   0.62985   0.63964
 Alpha virt. eigenvalues --    0.66340   0.67676   0.67971   0.69664   0.71680
 Alpha virt. eigenvalues --    0.73236   0.75256   0.75369   0.76269   0.77602
 Alpha virt. eigenvalues --    0.79976   0.82263   0.83320   0.84157   0.85188
 Alpha virt. eigenvalues --    0.85318   0.85504   0.87016   0.87274   0.87960
 Alpha virt. eigenvalues --    0.88977   0.89665   0.91139   0.91804   0.93171
 Alpha virt. eigenvalues --    0.94115   0.95401   0.95670   0.95880   0.96112
 Alpha virt. eigenvalues --    0.97340   0.98520   0.99531   1.00794   1.01766
 Alpha virt. eigenvalues --    1.04416   1.05595   1.07913   1.08730   1.10251
 Alpha virt. eigenvalues --    1.10985   1.14833   1.20690   1.22966   1.26503
 Alpha virt. eigenvalues --    1.28836   1.31636   1.39304   1.40358   1.42042
 Alpha virt. eigenvalues --    1.42274   1.44114   1.45127   1.50917   1.53878
 Alpha virt. eigenvalues --    1.53964   1.55147   1.61035   1.64747   1.65802
 Alpha virt. eigenvalues --    1.68923   1.71076   1.73560   1.73813   1.77383
 Alpha virt. eigenvalues --    1.80269   1.82914   1.83854   1.85402   1.85921
 Alpha virt. eigenvalues --    1.89522   1.89747   1.90720   1.92048   1.92541
 Alpha virt. eigenvalues --    1.95153   1.97138   1.98019   2.00330   2.02122
 Alpha virt. eigenvalues --    2.05017   2.05651   2.06131   2.06945   2.08675
 Alpha virt. eigenvalues --    2.09982   2.12863   2.14848   2.18053   2.24044
 Alpha virt. eigenvalues --    2.24387   2.26308   2.28653   2.30196   2.32225
 Alpha virt. eigenvalues --    2.33359   2.35205   2.37503   2.38282   2.39098
 Alpha virt. eigenvalues --    2.39689   2.41614   2.44127   2.47089   2.48410
 Alpha virt. eigenvalues --    2.51161   2.58054   2.59539   2.61177   2.63370
 Alpha virt. eigenvalues --    2.65319   2.66368   2.68546   2.70001   2.72506
 Alpha virt. eigenvalues --    2.76597   2.77737   2.80821   2.95232   3.03183
 Alpha virt. eigenvalues --    3.18006   3.96356   4.01143   4.10862   4.14182
 Alpha virt. eigenvalues --    4.24149   4.27800   4.29090   4.41522   4.43989
 Alpha virt. eigenvalues --    4.53454   4.54067   4.55427   4.62866
          Condensed to atoms (all electrons):
               1          2          3          4          5          6
     1  C    4.946019   0.334475  -0.061047  -0.003808  -0.002614   0.000066
     2  N    0.334475   6.846760   0.372180  -0.075097   0.001863   0.000017
     3  C   -0.061047   0.372180   4.887643   0.327838  -0.040773  -0.003287
     4  C   -0.003808  -0.075097   0.327838   5.222495   0.350434  -0.059703
     5  C   -0.002614   0.001863  -0.040773   0.350434   4.967431   0.285510
     6  N    0.000066   0.000017  -0.003287  -0.059703   0.285510   7.053411
     7  C   -0.000000  -0.000005  -0.000491   0.000588  -0.039614   0.270424
     8  C   -0.000000   0.000008  -0.000781   0.000654   0.001851  -0.054271
     9  C   -0.000000  -0.000000   0.000016   0.000044   0.000009  -0.003458
    10  C   -0.000000   0.000017  -0.000173  -0.000007  -0.000234   0.008572
    11  C    0.000000  -0.000106  -0.000033  -0.000154   0.006324  -0.123650
    12  C   -0.000062   0.000640   0.003133  -0.002867  -0.024446   0.274196
    13  O    0.000293  -0.013749   0.001495  -0.000347  -0.008571  -0.097825
    14  H    0.378094  -0.042112  -0.004018  -0.002819   0.000286  -0.000002
    15  H    0.354188  -0.052622  -0.004478   0.007511   0.000464   0.000066
    16  H    0.384256  -0.037256   0.005032  -0.000154   0.000022  -0.000001
    17  H   -0.035617   0.296046  -0.039022  -0.002299   0.003489  -0.002959
    18  H    0.006253  -0.037375   0.378583  -0.051228  -0.007565   0.005153
    19  H   -0.005414  -0.045195   0.377849  -0.058662   0.005789   0.000042
    20  H    0.000030   0.004794  -0.027551   0.344242  -0.033991  -0.005175
    21  H    0.004122  -0.004399  -0.032114   0.364057  -0.036529   0.004665
    22  H   -0.000005   0.000132   0.005028  -0.045965   0.369769  -0.044343
    23  H    0.001536   0.006554  -0.006083  -0.041484   0.370563  -0.043361
    24  H   -0.000000   0.000001  -0.000010  -0.000140   0.002583  -0.041513
    25  H   -0.000000   0.000003   0.000065  -0.001303  -0.003745  -0.037157
    26  H    0.000000  -0.000000   0.000022  -0.000059  -0.000184   0.004887
    27  H    0.000001   0.000000  -0.000101   0.000060  -0.000041  -0.002378
    28  H   -0.000000   0.000000  -0.000001  -0.000000  -0.000008   0.000078
    29  H   -0.000000   0.000000   0.000000   0.000002   0.000001  -0.000127
    30  H    0.000000  -0.000000   0.000002  -0.000001   0.000004  -0.000119
    31  H    0.000000   0.000004  -0.000106   0.000005  -0.000103   0.000283
    32  H    0.000000   0.000000  -0.000002  -0.000006  -0.000215   0.001149
    33  H   -0.000000   0.000001  -0.000001   0.000002  -0.000160   0.005684
               7          8          9         10         11         12
     1  C   -0.000000  -0.000000  -0.000000  -0.000000   0.000000  -0.000062
     2  N   -0.000005   0.000008  -0.000000   0.000017  -0.000106   0.000640
     3  C   -0.000491  -0.000781   0.000016  -0.000173  -0.000033   0.003133
     4  C    0.000588   0.000654   0.000044  -0.000007  -0.000154  -0.002867
     5  C   -0.039614   0.001851   0.000009  -0.000234   0.006324  -0.024446
     6  N    0.270424  -0.054271  -0.003458   0.008572  -0.123650   0.274196
     7  C    4.957783   0.362311  -0.039628  -0.007114   0.005780  -0.023700
     8  C    0.362311   5.055717   0.385151  -0.045786  -0.004843   0.000725
     9  C   -0.039628   0.385151   4.999222   0.371679  -0.041121  -0.002613
    10  C   -0.007114  -0.045786   0.371679   5.014890   0.346031  -0.028273
    11  C    0.005780  -0.004843  -0.041121   0.346031   5.267026   0.357548
    12  C   -0.023700   0.000725  -0.002613  -0.028273   0.357548   4.382762
    13  O    0.003274  -0.000090   0.000095  -0.001210  -0.076112   0.540031
    14  H   -0.000000  -0.000000  -0.000000   0.000000  -0.000000   0.000001
    15  H    0.000002   0.000000   0.000000  -0.000000  -0.000000  -0.000033
    16  H   -0.000000   0.000000  -0.000000   0.000000  -0.000000   0.000004
    17  H    0.000001   0.000011   0.000003  -0.000065   0.000619  -0.000886
    18  H   -0.000572  -0.000145  -0.000175   0.000200  -0.000162   0.001522
    19  H    0.000017  -0.000011   0.000001   0.000001  -0.000001  -0.000057
    20  H    0.003024  -0.000817   0.000029   0.000005  -0.000008  -0.000274
    21  H   -0.000234  -0.000007  -0.000001   0.000000   0.000004   0.000023
    22  H   -0.006946  -0.000226  -0.000014   0.000005  -0.000211   0.003768
    23  H    0.004473  -0.000235  -0.000000   0.000006   0.000939  -0.003630
    24  H    0.369531  -0.050981  -0.007820  -0.000326   0.000936  -0.004895
    25  H    0.375939  -0.035620   0.004213   0.000107  -0.000276   0.002867
    26  H   -0.032752   0.356342  -0.034462   0.005510  -0.000095  -0.000099
    27  H   -0.040786   0.372792  -0.038630  -0.003725  -0.000624   0.000244
    28  H   -0.007167  -0.041916   0.372247  -0.041370  -0.006591  -0.000258
    29  H    0.005129  -0.034641   0.371956  -0.033810   0.005010  -0.000096
    30  H   -0.000019   0.005096  -0.034055   0.372304  -0.032957   0.003748
    31  H   -0.000695  -0.004566  -0.038036   0.375188  -0.045285  -0.004161
    32  H   -0.001087  -0.001719  -0.005858  -0.039213   0.342219  -0.026662
    33  H   -0.000204   0.000040   0.003864  -0.024112   0.351984  -0.026087
              13         14         15         16         17         18
     1  C    0.000293   0.378094   0.354188   0.384256  -0.035617   0.006253
     2  N   -0.013749  -0.042112  -0.052622  -0.037256   0.296046  -0.037375
     3  C    0.001495  -0.004018  -0.004478   0.005032  -0.039022   0.378583
     4  C   -0.000347  -0.002819   0.007511  -0.000154  -0.002299  -0.051228
     5  C   -0.008571   0.000286   0.000464   0.000022   0.003489  -0.007565
     6  N   -0.097825  -0.000002   0.000066  -0.000001  -0.002959   0.005153
     7  C    0.003274  -0.000000   0.000002  -0.000000   0.000001  -0.000572
     8  C   -0.000090  -0.000000   0.000000   0.000000   0.000011  -0.000145
     9  C    0.000095  -0.000000   0.000000  -0.000000   0.000003  -0.000175
    10  C   -0.001210   0.000000  -0.000000   0.000000  -0.000065   0.000200
    11  C   -0.076112  -0.000000  -0.000000  -0.000000   0.000619  -0.000162
    12  C    0.540031   0.000001  -0.000033   0.000004  -0.000886   0.001522
    13  O    8.117024  -0.000008   0.000022  -0.000009   0.037622  -0.000367
    14  H   -0.000008   0.593962  -0.050197  -0.025104   0.004888   0.000075
    15  H    0.000022  -0.050197   0.681778  -0.044602  -0.002676  -0.000265
    16  H   -0.000009  -0.025104  -0.044602   0.571076  -0.002224  -0.000199
    17  H    0.037622   0.004888  -0.002676  -0.002224   0.402243  -0.005215
    18  H   -0.000367   0.000075  -0.000265  -0.000199  -0.005215   0.598936
    19  H    0.000001   0.007996  -0.001442   0.000104   0.005713  -0.031977
    20  H   -0.000042   0.000039  -0.000284   0.000003  -0.000137  -0.002528
    21  H   -0.000029   0.000546   0.000956  -0.000097  -0.000304   0.005378
    22  H    0.000754  -0.000001  -0.000138   0.000001  -0.000048   0.000030
    23  H    0.020726   0.000009   0.000024   0.000035   0.000234   0.000146
    24  H    0.000006   0.000000  -0.000000   0.000000  -0.000002   0.000017
    25  H   -0.000100   0.000000  -0.000000   0.000000  -0.000001  -0.000012
    26  H   -0.000000   0.000000  -0.000000  -0.000000  -0.000000   0.000009
    27  H   -0.000052   0.000000  -0.000000  -0.000000  -0.000002   0.004678
    28  H   -0.000003   0.000000   0.000000   0.000000  -0.000000   0.000005
    29  H    0.000001   0.000000  -0.000000   0.000000  -0.000000  -0.000010
    30  H   -0.000089  -0.000000   0.000000   0.000000   0.000002  -0.000000
    31  H    0.001337  -0.000000   0.000000  -0.000000  -0.000006   0.001820
    32  H    0.002390  -0.000000   0.000000   0.000000  -0.000005   0.000011
    33  H    0.005976   0.000000   0.000000   0.000000   0.000001  -0.000001
              19         20         21         22         23         24
     1  C   -0.005414   0.000030   0.004122  -0.000005   0.001536  -0.000000
     2  N   -0.045195   0.004794  -0.004399   0.000132   0.006554   0.000001
     3  C    0.377849  -0.027551  -0.032114   0.005028  -0.006083  -0.000010
     4  C   -0.058662   0.344242   0.364057  -0.045965  -0.041484  -0.000140
     5  C    0.005789  -0.033991  -0.036529   0.369769   0.370563   0.002583
     6  N    0.000042  -0.005175   0.004665  -0.044343  -0.043361  -0.041513
     7  C    0.000017   0.003024  -0.000234  -0.006946   0.004473   0.369531
     8  C   -0.000011  -0.000817  -0.000007  -0.000226  -0.000235  -0.050981
     9  C    0.000001   0.000029  -0.000001  -0.000014  -0.000000  -0.007820
    10  C    0.000001   0.000005   0.000000   0.000005   0.000006  -0.000326
    11  C   -0.000001  -0.000008   0.000004  -0.000211   0.000939   0.000936
    12  C   -0.000057  -0.000274   0.000023   0.003768  -0.003630  -0.004895
    13  O    0.000001  -0.000042  -0.000029   0.000754   0.020726   0.000006
    14  H    0.007996   0.000039   0.000546  -0.000001   0.000009   0.000000
    15  H   -0.001442  -0.000284   0.000956  -0.000138   0.000024  -0.000000
    16  H    0.000104   0.000003  -0.000097   0.000001   0.000035   0.000000
    17  H    0.005713  -0.000137  -0.000304  -0.000048   0.000234  -0.000002
    18  H   -0.031977  -0.002528   0.005378   0.000030   0.000146   0.000017
    19  H    0.617287   0.001405  -0.004837  -0.000134   0.000155   0.000000
    20  H    0.001405   0.624124  -0.035357  -0.003999   0.005131   0.000016
    21  H   -0.004837  -0.035357   0.595872  -0.000108  -0.001892   0.000008
    22  H   -0.000134  -0.003999  -0.000108   0.605270  -0.027019   0.001035
    23  H    0.000155   0.005131  -0.001892  -0.027019   0.525818  -0.000147
    24  H    0.000000   0.000016   0.000008   0.001035  -0.000147   0.595064
    25  H    0.000000   0.002418  -0.000132   0.004089   0.000307  -0.031497
    26  H   -0.000001   0.000106   0.000002   0.000033   0.000006   0.001755
    27  H    0.000044   0.001418   0.000041   0.000064  -0.000020   0.005394
    28  H    0.000000   0.000001   0.000000   0.000001  -0.000000   0.006088
    29  H   -0.000000  -0.000001   0.000000  -0.000000  -0.000000  -0.000003
    30  H   -0.000000  -0.000000   0.000000   0.000000   0.000001   0.000030
    31  H   -0.000001   0.000001   0.000000  -0.000000  -0.000014   0.000112
    32  H    0.000000   0.000001   0.000000   0.000003  -0.000062   0.003735
    33  H    0.000000   0.000000  -0.000000   0.000005  -0.000020   0.000058
              25         26         27         28         29         30
     1  C   -0.000000   0.000000   0.000001  -0.000000  -0.000000   0.000000
     2  N    0.000003  -0.000000   0.000000   0.000000   0.000000  -0.000000
     3  C    0.000065   0.000022  -0.000101  -0.000001   0.000000   0.000002
     4  C   -0.001303  -0.000059   0.000060  -0.000000   0.000002  -0.000001
     5  C   -0.003745  -0.000184  -0.000041  -0.000008   0.000001   0.000004
     6  N   -0.037157   0.004887  -0.002378   0.000078  -0.000127  -0.000119
     7  C    0.375939  -0.032752  -0.040786  -0.007167   0.005129  -0.000019
     8  C   -0.035620   0.356342   0.372792  -0.041916  -0.034641   0.005096
     9  C    0.004213  -0.034462  -0.038630   0.372247   0.371956  -0.034055
    10  C    0.000107   0.005510  -0.003725  -0.041370  -0.033810   0.372304
    11  C   -0.000276  -0.000095  -0.000624  -0.006591   0.005010  -0.032957
    12  C    0.002867  -0.000099   0.000244  -0.000258  -0.000096   0.003748
    13  O   -0.000100  -0.000000  -0.000052  -0.000003   0.000001  -0.000089
    14  H    0.000000   0.000000   0.000000   0.000000   0.000000  -0.000000
    15  H   -0.000000  -0.000000  -0.000000   0.000000  -0.000000   0.000000
    16  H    0.000000  -0.000000  -0.000000   0.000000   0.000000   0.000000
    17  H   -0.000001  -0.000000  -0.000002  -0.000000  -0.000000   0.000002
    18  H   -0.000012   0.000009   0.004678   0.000005  -0.000010  -0.000000
    19  H    0.000000  -0.000001   0.000044   0.000000  -0.000000  -0.000000
    20  H    0.002418   0.000106   0.001418   0.000001  -0.000001  -0.000000
    21  H   -0.000132   0.000002   0.000041   0.000000   0.000000   0.000000
    22  H    0.004089   0.000033   0.000064   0.000001  -0.000000   0.000000
    23  H    0.000307   0.000006  -0.000020  -0.000000  -0.000000   0.000001
    24  H   -0.031497   0.001755   0.005394   0.006088  -0.000003   0.000030
    25  H    0.569233  -0.004689  -0.001401   0.000009  -0.000168   0.000003
    26  H   -0.004689   0.604348  -0.031003  -0.003903  -0.003432  -0.000159
    27  H   -0.001401  -0.031003   0.574173   0.005624  -0.003814   0.000005
    28  H    0.000009  -0.003903   0.005624   0.613610  -0.035720  -0.004015
    29  H   -0.000168  -0.003432  -0.003814  -0.035720   0.596695  -0.003568
    30  H    0.000003  -0.000159   0.000005  -0.004015  -0.003568   0.591449
    31  H    0.000003  -0.000050   0.003339   0.005679  -0.003293  -0.034627
    32  H    0.000112  -0.000039   0.000121   0.005964   0.000095  -0.001798
    33  H    0.000000   0.000004   0.000000   0.000047  -0.000150  -0.007091
              31         32         33
     1  C    0.000000   0.000000  -0.000000
     2  N    0.000004   0.000000   0.000001
     3  C   -0.000106  -0.000002  -0.000001
     4  C    0.000005  -0.000006   0.000002
     5  C   -0.000103  -0.000215  -0.000160
     6  N    0.000283   0.001149   0.005684
     7  C   -0.000695  -0.001087  -0.000204
     8  C   -0.004566  -0.001719   0.000040
     9  C   -0.038036  -0.005858   0.003864
    10  C    0.375188  -0.039213  -0.024112
    11  C   -0.045285   0.342219   0.351984
    12  C   -0.004161  -0.026662  -0.026087
    13  O    0.001337   0.002390   0.005976
    14  H   -0.000000  -0.000000   0.000000
    15  H    0.000000   0.000000   0.000000
    16  H   -0.000000   0.000000   0.000000
    17  H   -0.000006  -0.000005   0.000001
    18  H    0.001820   0.000011  -0.000001
    19  H   -0.000001   0.000000   0.000000
    20  H    0.000001   0.000001   0.000000
    21  H    0.000000   0.000000  -0.000000
    22  H   -0.000000   0.000003   0.000005
    23  H   -0.000014  -0.000062  -0.000020
    24  H    0.000112   0.003735   0.000058
    25  H    0.000003   0.000112   0.000000
    26  H   -0.000050  -0.000039   0.000004
    27  H    0.003339   0.000121   0.000000
    28  H    0.005679   0.005964   0.000047
    29  H   -0.003293   0.000095  -0.000150
    30  H   -0.034627  -0.001798  -0.007091
    31  H    0.583089   0.005772  -0.000130
    32  H    0.005772   0.595236  -0.027077
    33  H   -0.000130  -0.027077   0.543372
 Mulliken charges:
               1
     1  C   -0.300766
     2  N   -0.555578
     3  C   -0.138814
     4  C   -0.271829
     5  C   -0.167601
     6  N   -0.394877
     7  C   -0.157262
     8  C   -0.264044
     9  C   -0.262657
    10  C   -0.269100
    11  C   -0.352192
    12  C    0.577887
    13  O   -0.532445
    14  H    0.138364
    15  H    0.111727
    16  H    0.149112
    17  H    0.340596
    18  H    0.134981
    19  H    0.131329
    20  H    0.123380
    21  H    0.140367
    22  H    0.139170
    23  H    0.187306
    24  H    0.150966
    25  H    0.156732
    26  H    0.137903
    27  H    0.154580
    28  H    0.131600
    29  H    0.139944
    30  H    0.145854
    31  H    0.154441
    32  H    0.146936
    33  H    0.173990
 Sum of Mulliken charges =   0.00000
 Mulliken charges with hydrogens summed into heavy atoms:
               1
     1  C    0.098437
     2  N   -0.214982
     3  C    0.127495
     4  C   -0.008082
     5  C    0.158875
     6  N   -0.394877
     7  C    0.150437
     8  C    0.028439
     9  C    0.008887
    10  C    0.031196
    11  C   -0.031265
    12  C    0.577887
    13  O   -0.532445
 APT charges:
               1
     1  C   -1.413155
     2  N   -0.344795
     3  C   -0.724060
     4  C   -0.854798
     5  C   -0.817402
     6  N   -0.154813
     7  C   -0.860195
     8  C   -0.757796
     9  C   -1.134975
    10  C   -0.860476
    11  C   -0.883858
    12  C    0.035373
    13  O   -0.231617
    14  H    0.574938
    15  H    0.248508
    16  H    0.643083
    17  H    0.261613
    18  H    0.161418
    19  H    0.560588
    20  H    0.340290
    21  H    0.565368
    22  H    0.507058
    23  H    0.390598
    24  H    0.489302
    25  H    0.461258
    26  H    0.598818
    27  H    0.202141
    28  H    0.531566
    29  H    0.584161
    30  H    0.678793
    31  H    0.207223
    32  H    0.461755
    33  H    0.534090
 Sum of APT charges =   0.00000
 APT charges with hydrogens summed into heavy atoms:
               1
     1  C    0.053373
     2  N   -0.083181
     3  C   -0.002055
     4  C    0.050860
     5  C    0.080254
     6  N   -0.154813
     7  C    0.090365
     8  C    0.043163
     9  C   -0.019248
    10  C    0.025540
    11  C    0.111987
    12  C    0.035373
    13  O   -0.231617
 Electronic spatial extent (au):  <R**2>=           2732.3000
 Charge=              0.0000 electrons
 Dipole moment (field-independent basis, Debye):
    X=              2.9175    Y=             -3.1118    Z=             -0.8361  Tot=              4.3468
 Quadrupole moment (field-independent basis, Debye-Ang):
   XX=            -77.6962   YY=            -83.9075   ZZ=            -82.8756
   XY=              3.5020   XZ=              2.5076   YZ=              1.3383
 Traceless Quadrupole moment (field-independent basis, Debye-Ang):
   XX=              3.7969   YY=             -2.4144   ZZ=             -1.3825
   XY=              3.5020   XZ=              2.5076   YZ=              1.3383
 Octapole moment (field-independent basis, Debye-Ang**2):
  XXX=              3.2223  YYY=             -3.6499  ZZZ=             -8.0490  XYY=              6.3202
  XXY=              1.4172  XXZ=             -9.5025  XZZ=              8.1567  YZZ=             -3.8956
  YYZ=              0.7863  XYZ=              3.5131
 Hexadecapole moment (field-independent basis, Debye-Ang**3):
 XXXX=          -2375.1094 YYYY=           -776.3215 ZZZZ=           -506.1624 XXXY=              1.7761
 XXXZ=              9.2830 YYYX=             -1.1906 YYYZ=              9.9007 ZZZX=             13.5007
 ZZZY=             -6.4603 XXYY=           -512.7631 XXZZ=           -497.0111 YYZZ=           -214.2443
 XXYZ=            -11.8122 YYXZ=             -1.3576 ZZXY=             10.0475
 N-N= 8.939032063229D+02 E-N=-3.129305176616D+03  KE= 5.723570994268D+02
  Exact polarizability:   0.000   0.000   0.000   0.000   0.000   0.000
 Approx polarizability: 172.201  -8.488 178.972   2.224   2.808 145.249
 Calling FoFJK, ICntrl=    100147 FMM=F ISym2X=0 I1Cent= 0 IOpClX= 0 NMat=1 NMatS=1 NMatT=0.
 ***** Axes restored to original set *****
 -------------------------------------------------------------------
 Center     Atomic                   Forces (Hartrees/Bohr)
 Number     Number              X              Y              Z
 -------------------------------------------------------------------
      1        6           0.000321242    0.001001788    0.003983246
      2        7           0.000711061    0.000145330   -0.001447197
      3        6           0.000610717   -0.002167571    0.000343684
      4        6          -0.000384684    0.000049029   -0.000311848
      5        6           0.000599551    0.001191495    0.000396640
      6        7          -0.000085590    0.000376889    0.000881924
      7        6           0.000578648    0.000041727   -0.000476551
      8        6          -0.000246152   -0.000105368    0.000374049
      9        6           0.000481675   -0.000978108   -0.001282637
     10        6          -0.000562012   -0.000064200    0.000483679
     11        6           0.000437644    0.001512605   -0.001139524
     12        6           0.000257320   -0.000001543   -0.000167934
     13        8          -0.000181182   -0.000220626   -0.000283364
     14        1          -0.000097849    0.000393851   -0.001216024
     15        1          -0.000223456    0.000305946   -0.002200337
     16        1          -0.000140831   -0.000818343   -0.000103337
     17        1           0.000296487   -0.000062241    0.000963570
     18        1          -0.000362871    0.000037529   -0.000113619
     19        1          -0.000390711    0.000353894   -0.000480941
     20        1           0.000502208    0.000083478    0.000247666
     21        1           0.000183742   -0.000222658    0.000013494
     22        1          -0.000102631   -0.000110192   -0.000435146
     23        1          -0.000328354   -0.000741612    0.000000890
     24        1          -0.000655994   -0.000122694    0.000308776
     25        1          -0.000119850    0.000364348   -0.000164393
     26        1          -0.000267717    0.000068849   -0.000146193
     27        1           0.000186364    0.000130544    0.000192376
     28        1          -0.000808539    0.000135642    0.000429866
     29        1           0.000316328    0.000307474    0.000612613
     30        1          -0.000102477    0.000102750    0.000091571
     31        1           0.000714483    0.000141473   -0.000262584
     32        1          -0.000958611   -0.000114608    0.000704079
     33        1          -0.000177957   -0.001014876    0.000203505
 -------------------------------------------------------------------
 Cartesian Forces:  Max     0.003983246 RMS     0.000723753

 GradGradGradGradGradGradGradGradGradGradGradGradGradGradGradGradGradGrad
 Berny optimization.
 Search for a local minimum.
 Step number   1 out of a maximum of  109
 All quantities printed in internal units (Hartrees-Bohrs-Radians)
 Second derivative matrix not updated -- analytic derivatives used.
 ITU=  0
     Eigenvalues ---    0.00035   0.00050   0.00083   0.00138   0.00201
     Eigenvalues ---    0.00301   0.00363   0.00490   0.00696   0.00745
     Eigenvalues ---    0.00905   0.01074   0.01304   0.01493   0.01554
     Eigenvalues ---    0.01758   0.02691   0.02933   0.03410   0.03990
     Eigenvalues ---    0.04524   0.04686   0.04766   0.04869   0.04953
     Eigenvalues ---    0.05285   0.05394   0.05470   0.05758   0.05890
     Eigenvalues ---    0.06337   0.06537   0.06680   0.06856   0.07225
     Eigenvalues ---    0.07392   0.07845   0.08333   0.08723   0.09470
     Eigenvalues ---    0.09689   0.10319   0.10548   0.10977   0.11562
     Eigenvalues ---    0.12452   0.12519   0.13952   0.14384   0.15036
     Eigenvalues ---    0.16350   0.16816   0.17562   0.17798   0.18317
     Eigenvalues ---    0.19084   0.20605   0.21104   0.21664   0.24890
     Eigenvalues ---    0.26574   0.28758   0.33768   0.36239   0.38256
     Eigenvalues ---    0.42858   0.51073   0.53519   0.56515   0.60776
     Eigenvalues ---    0.64558   0.68583   0.69301   0.71687   0.73613
     Eigenvalues ---    0.75067   0.75708   0.76207   0.76965   0.79309
     Eigenvalues ---    0.81070   0.81610   0.82428   0.83040   0.85479
     Eigenvalues ---    0.85827   0.88659   0.89523   0.91820   0.92374
     Eigenvalues ---    1.03612   1.05833   1.49871
 RFO step:  Lambda=-3.85443642D-04 EMin= 3.50345350D-04
 Linear search not attempted -- first point.
 Maximum step size (   0.300) exceeded in Quadratic search.
    -- Step size scaled by   0.900
 B after Tr=    -0.001120    0.000703    0.000744
         Rot=    1.000000    0.000484    0.000023    0.000031 Ang=   0.06 deg.
 Variable       Old X    -DE/DX   Delta X   Delta X   Delta X     New X
                                 (Linear)    (Quad)   (Total)
    X1        7.38650   0.00032   0.00000   0.01857   0.01754   7.40404
    Y1        0.89530   0.00100   0.00000  -0.00579  -0.00621   0.88908
    Z1       -0.64479   0.00398   0.00000  -0.03917  -0.03895  -0.68374
    X2        4.90555   0.00071   0.00000  -0.00334  -0.00430   4.90124
    Y2        1.16182   0.00015   0.00000  -0.00017  -0.00150   1.16032
    Z2       -1.78929  -0.00145   0.00000   0.00489   0.00474  -1.78456
    X3        3.51629   0.00061   0.00000  -0.00542  -0.00652   3.50977
    Y3       -1.18542  -0.00217   0.00000  -0.00493  -0.00647  -1.19189
    Z3       -2.10023   0.00034   0.00000   0.01048   0.01254  -2.08770
    X4        3.09268  -0.00038   0.00000  -0.00158  -0.00289   3.08979
    Y4       -2.82111   0.00005   0.00000   0.00313   0.00393  -2.81718
    Z4        0.27857  -0.00031   0.00000   0.01456   0.01818   0.29674
    X5        1.81079   0.00060   0.00000  -0.00858  -0.00991   1.80089
    Y5       -1.40982   0.00119   0.00000   0.00204   0.00502  -1.40480
    Z5        2.45499   0.00040   0.00000   0.01584   0.01803   2.47302
    X6       -0.72264  -0.00009   0.00000  -0.01233  -0.01356  -0.73621
    Y6       -0.48935   0.00038   0.00000   0.00594   0.00849  -0.48086
    Z6        1.83117   0.00088   0.00000   0.02848   0.02965   1.86083
    X7       -2.76489   0.00058   0.00000  -0.01236  -0.01371  -2.77859
    Y7       -2.35131   0.00004   0.00000   0.00630   0.00884  -2.34248
    Z7        1.70510  -0.00048   0.00000   0.01386   0.01675   1.72185
    X8       -3.85069  -0.00025   0.00000   0.00968   0.00843  -3.84226
    Y8       -2.80112  -0.00011   0.00000   0.00239   0.00242  -2.79870
    Z8       -0.94889   0.00037   0.00000   0.00554   0.00882  -0.94007
    X9       -5.72493   0.00048   0.00000   0.01816   0.01708  -5.70785
    Y9       -0.76840  -0.00098   0.00000  -0.00169  -0.00240  -0.77080
    Z9       -1.81126  -0.00128   0.00000  -0.02148  -0.02025  -1.83151
   X10       -4.65481  -0.00056   0.00000   0.00822   0.00730  -4.64751
   Y10        1.91928  -0.00006   0.00000   0.00412   0.00327   1.92254
   Z10       -1.90349   0.00048   0.00000  -0.00436  -0.00569  -1.90918
   X11       -3.70519   0.00044   0.00000  -0.01298  -0.01395  -3.71914
   Y11        2.91133   0.00151   0.00000  -0.00019   0.00140   2.91273
   Z11        0.66791  -0.00114   0.00000   0.00465   0.00241   0.67032
   X12       -1.05365   0.00026   0.00000  -0.01082  -0.01187  -1.06553
   Y12        2.02573  -0.00000   0.00000   0.00182   0.00389   2.02962
   Z12        1.33942  -0.00017   0.00000   0.00604   0.00477   1.34419
   X13        0.71322  -0.00018   0.00000  -0.00864  -0.00960   0.70362
   Y13        3.54790  -0.00022   0.00000  -0.00092   0.00106   3.54897
   Z13        1.38369  -0.00028   0.00000  -0.01554  -0.01820   1.36550
   X14        8.49765  -0.00010   0.00000   0.03952   0.03846   8.53611
   Y14       -0.50259   0.00039   0.00000   0.09558   0.09395  -0.40864
   Z14       -1.69776  -0.00122   0.00000  -0.15377  -0.15224  -1.85000
   X15        7.39430  -0.00022   0.00000   0.05956   0.05839   7.45269
   Y15        0.29097   0.00031   0.00000  -0.13001  -0.12854   0.16243
   Z15        1.36479  -0.00220   0.00000  -0.08418  -0.08325   1.28154
   X16        8.38446  -0.00014   0.00000  -0.03203  -0.03294   8.35152
   Y16        2.70869  -0.00082   0.00000   0.02446   0.02397   2.73265
   Z16       -0.74399  -0.00010   0.00000   0.05415   0.05263  -0.69135
   X17        3.82859   0.00030   0.00000   0.01189   0.01095   3.83954
   Y17        2.42500  -0.00006   0.00000  -0.02487  -0.02514   2.39986
   Z17       -0.81406   0.00096   0.00000   0.05621   0.05481  -0.75925
   X18        1.68106  -0.00036   0.00000  -0.01113  -0.01216   1.66889
   Y18       -0.70946   0.00004   0.00000  -0.00001  -0.00223  -0.71169
   Z18       -2.93540  -0.00011   0.00000   0.02219   0.02370  -2.91170
   X19        4.51720  -0.00039   0.00000  -0.01889  -0.02000   4.49719
   Y19       -2.35758   0.00035   0.00000   0.00084  -0.00212  -2.35970
   Z19       -3.49448  -0.00048   0.00000  -0.00291   0.00032  -3.49416
   X20        1.97024   0.00050   0.00000   0.00829   0.00690   1.97714
   Y20       -4.48906   0.00008   0.00000  -0.00457  -0.00421  -4.49326
   Z20       -0.24970   0.00025   0.00000   0.02223   0.02741  -0.22229
   X21        4.90814   0.00018   0.00000  -0.00063  -0.00202   4.90612
   Y21       -3.54022  -0.00022   0.00000   0.00916   0.01052  -3.52970
   Z21        0.97521   0.00001   0.00000   0.02037   0.02476   0.99997
   X22        1.66278  -0.00010   0.00000  -0.01138  -0.01286   1.64992
   Y22       -2.63676  -0.00011   0.00000  -0.01132  -0.00673  -2.64349
   Z22        4.12048  -0.00044   0.00000   0.00468   0.00806   4.12854
   X23        2.92465  -0.00033   0.00000  -0.00736  -0.00860   2.91605
   Y23        0.24355  -0.00074   0.00000  -0.00558  -0.00215   0.24140
   Z23        2.98373   0.00000   0.00000   0.02936   0.03001   3.01374
   X24       -4.28956  -0.00066   0.00000  -0.02531  -0.02668  -4.31624
   Y24       -1.81407  -0.00012   0.00000   0.00374   0.00763  -1.80645
   Z24        3.00502   0.00031   0.00000   0.00221   0.00451   3.00953
   X25       -1.97656  -0.00012   0.00000  -0.01763  -0.01912  -1.99567
   Y25       -4.11896   0.00036   0.00000   0.00756   0.01076  -4.10820
   Z25        2.42860  -0.00016   0.00000   0.02005   0.02468   2.45328
   X26       -4.81655  -0.00027   0.00000   0.00726   0.00589  -4.81066
   Y26       -4.63697   0.00007   0.00000   0.00351   0.00360  -4.63337
   Z26       -0.94063  -0.00015   0.00000  -0.00315   0.00186  -0.93877
   X27       -2.28390   0.00019   0.00000   0.02492   0.02372  -2.26018
   Y27       -2.95895   0.00013   0.00000   0.00092  -0.00044  -2.95939
   Z27       -2.29679   0.00019   0.00000   0.02341   0.02691  -2.26988
   X28       -7.35292  -0.00081   0.00000  -0.00493  -0.00607  -7.35899
   Y28       -0.78931   0.00014   0.00000  -0.00498  -0.00437  -0.79368
   Z28       -0.52287   0.00043   0.00000  -0.04662  -0.04544  -0.56831
   X29       -6.45983   0.00032   0.00000   0.04938   0.04835  -6.41149
   Y29       -1.27715   0.00031   0.00000  -0.00062  -0.00311  -1.28026
   Z29       -3.68451   0.00061   0.00000  -0.03171  -0.03002  -3.71454
   X30       -6.14029  -0.00010   0.00000   0.00767   0.00687  -6.13342
   Y30        3.19366   0.00010   0.00000   0.00033  -0.00109   3.19257
   Z30       -2.58266   0.00009   0.00000  -0.01098  -0.01361  -2.59627
   X31       -3.11675   0.00071   0.00000   0.02220   0.02136  -3.09539
   Y31        2.03116   0.00014   0.00000   0.01726   0.01499   2.04615
   Z31       -3.28861  -0.00026   0.00000   0.00940   0.00802  -3.28059
   X32       -5.04796  -0.00096   0.00000  -0.02334  -0.02440  -5.07237
   Y32        2.38754  -0.00011   0.00000  -0.00932  -0.00622   2.38132
   Z32        2.15716   0.00070   0.00000  -0.00383  -0.00562   2.15154
   X33       -3.58342  -0.00018   0.00000  -0.01923  -0.02007  -3.60349
   Y33        4.97323  -0.00101   0.00000  -0.00235  -0.00080   4.97243
   Z33        0.62980   0.00020   0.00000   0.01394   0.00971   0.63950
         Item               Value     Threshold  Converged?
 Maximum Force            0.003983     0.000450     NO 
 RMS     Force            0.000724     0.000300     NO 
 Maximum Displacement     0.152239     0.001800     NO 
 RMS     Displacement     0.030080     0.001200     NO 
 Predicted change in Energy=-2.084323D-04
 GradGradGradGradGradGradGradGradGradGradGradGradGradGradGradGradGradGrad

                          Input orientation:                          
 ---------------------------------------------------------------------
 Center     Atomic      Atomic             Coordinates (Angstroms)
 Number     Number       Type             X           Y           Z
 ---------------------------------------------------------------------
      1          6           0        3.918048    0.470483   -0.361820
      2          7           0        2.593627    0.614015   -0.944347
      3          6           0        1.857291   -0.630719   -1.104761
      4          6           0        1.635047   -1.490789    0.157029
      5          6           0        0.952988   -0.743387    1.308666
      6          7           0       -0.389583   -0.254462    0.984708
      7          6           0       -1.470369   -1.239585    0.911166
      8          6           0       -2.033238   -1.481006   -0.497461
      9          6           0       -3.020463   -0.407889   -0.969192
     10          6           0       -2.459357    1.017366   -1.010294
     11          6           0       -1.968083    1.541348    0.354716
     12          6           0       -0.563853    1.074029    0.711316
     13          8           0        0.372338    1.878032    0.722590
     14          1           0        4.517115   -0.216244   -0.978980
     15          1           0        3.943794    0.085956    0.678164
     16          1           0        4.419435    1.446058   -0.365849
     17          1           0        2.031798    1.269953   -0.401778
     18          1           0        0.883141   -0.376610   -1.540807
     19          1           0        2.379812   -1.248700   -1.849030
     20          1           0        1.046256   -2.377732   -0.117632
     21          1           0        2.596208   -1.867838    0.529161
     22          1           0        0.873101   -1.398873    2.184729
     23          1           0        1.543106    0.127744    1.594801
     24          1           0       -2.284057   -0.955930    1.592575
     25          1           0       -1.056065   -2.173967    1.298220
     26          1           0       -2.545693   -2.451873   -0.496777
     27          1           0       -1.196036   -1.566040   -1.201169
     28          1           0       -3.894208   -0.419999   -0.300735
     29          1           0       -3.392813   -0.677487   -1.965649
     30          1           0       -3.245666    1.689434   -1.373885
     31          1           0       -1.638008    1.082778   -1.736013
     32          1           0       -2.684181    1.260140    1.138545
     33          1           0       -1.906884    2.631294    0.338411
 ---------------------------------------------------------------------
                    Distance matrix (angstroms):
                    1          2          3          4          5
     1  C    0.000000
     2  N    1.453971   0.000000
     3  C    2.451801   1.455089   0.000000
     4  C    3.054159   2.561660   1.543123   0.000000
     5  C    3.613251   3.100049   2.579746   1.532997   0.000000
     6  N    4.571036   3.657191   3.091261   2.512505   1.465092
     7  C    5.794813   4.836819   3.938019   3.205531   2.505370
     8  C    6.264544   5.098696   4.028401   3.726227   3.567033
     9  C    7.020212   5.706392   4.884723   4.910684   4.592332
    10  C    6.433575   5.069485   4.621531   4.941419   4.485747
    11  C    6.025505   4.832878   4.634807   4.713330   3.829190
    12  C    4.647938   3.594789   3.473649   3.423548   2.441441
    13  O    3.966005   3.051318   3.440658   3.641874   2.748177
    14  H    1.100619   2.095313   2.694861   3.349821   4.267810
    15  H    1.109094   2.175853   2.836536   2.843944   3.167059
    16  H    1.096882   2.088189   3.379878   4.080599   4.428761
    17  H    2.049070   1.019944   2.034008   2.844534   2.853592
    18  H    3.364259   2.064670   1.097121   2.165503   2.873830
    19  H    2.744733   2.081796   1.099485   2.153499   3.501744
    20  H    4.052055   3.468193   2.164315   1.099446   2.171200
    21  H    2.829992   2.886317   2.178570   1.097488   2.138268
    22  H    4.387608   4.099152   3.518443   2.168081   1.097055
    23  H    3.096156   2.790578   2.821633   2.166861   1.090404
    24  H    6.657358   5.717735   4.952993   4.207878   3.256415
    25  H    5.872874   5.110988   4.079654   3.001854   2.466366
    26  H    7.094951   6.001049   4.803385   4.339323   4.291774
    27  H    5.568285   4.379514   3.194828   3.140923   3.405046
    28  H    7.863080   6.601168   5.811247   5.650557   5.117623
    29  H    7.572238   6.208743   5.320423   5.517843   5.441642
    30  H    7.336819   5.953013   5.612103   6.023194   5.544673
    31  H    5.756134   4.330498   3.943560   4.573810   4.395249
    32  H    6.816457   5.710620   5.406731   5.214088   4.155968
    33  H    6.252141   5.096026   5.185797   5.437807   4.528658
                    6          7          8          9         10
     6  N    0.000000
     7  C    1.464231   0.000000
     8  C    2.530383   1.536013   0.000000
     9  C    3.280670   2.574928   1.532554   0.000000
    10  C    3.143492   3.124729   2.585815   1.532280   0.000000
    11  C    2.472546   2.879400   3.140872   2.580652   1.542452
    12  C    1.367480   2.492894   3.185661   3.324924   2.561266
    13  O    2.279640   3.626384   4.307953   4.427038   3.429596
    14  H    5.285188   6.361591   6.688693   7.540021   7.084768
    15  H    4.357523   5.578934   6.289863   7.173461   6.687208
    16  H    5.276592   6.597972   7.086749   7.691114   6.922201
    17  H    3.179508   4.504084   4.909323   5.353733   4.539225
    18  H    2.830719   3.506552   3.288393   3.945358   3.660178
    19  H    4.085111   4.737368   4.621225   5.535707   5.408890
    20  H    2.790173   2.947406   3.229810   4.598221   4.961135
    21  H    3.424245   4.132514   4.757664   5.993622   6.021051
    22  H    2.084251   2.671926   3.955717   5.107750   5.210726
    23  H    2.062421   3.379049   4.444758   5.261855   4.857741
    24  H    2.109642   1.098575   2.169531   2.721267   3.271017
    25  H    2.055964   1.092945   2.158595   3.481243   4.181277
    26  H    3.416464   2.146688   1.097813   2.150919   3.508102
    27  H    2.673698   2.154945   1.096970   2.173398   2.882083
    28  H    3.736597   2.831152   2.151196   1.100186   2.151347
    29  H    4.231187   3.505397   2.156307   1.097385   2.157909
    30  H    4.183169   4.117316   3.505680   2.147849   1.096429
    31  H    3.278581   3.525482   2.874579   2.172851   1.097980
    32  H    2.753700   2.788130   3.257933   2.708867   2.174165
    33  H    3.323776   3.937296   4.198292   3.490919   2.174625
                   11         12         13         14         15
    11  C    0.000000
    12  C    1.522305   0.000000
    13  O    2.392960   1.234100   0.000000
    14  H    6.850231   5.508007   4.945756   0.000000
    15  H    6.096972   4.614788   3.996099   1.779367   0.000000
    16  H    6.428738   5.111932   4.213110   1.774463   1.779347
    17  H    4.079827   2.831037   2.094701   2.952751   2.494764
    18  H    3.924417   3.044701   3.235320   3.680643   3.808595
    19  H    5.616499   4.540442   4.518809   2.528046   3.257922
    20  H    4.966743   3.897981   4.389950   4.178614   3.885714
    21  H    5.699626   4.321313   4.360568   2.948243   2.378130
    22  H    4.479529   3.217301   3.623081   4.968551   3.728754
    23  H    3.983031   2.472908   2.279244   3.948089   2.570072
    24  H    2.805091   2.802936   3.980533   7.308623   6.380266
    25  H    3.940247   3.337095   4.334787   6.330770   5.521803
    26  H    4.123650   4.221275   5.361888   7.423868   7.066435
    27  H    3.559873   3.320725   4.245265   5.874642   5.716540
    28  H    2.826032   3.787827   4.952934   8.441083   7.915081
    29  H    3.512431   4.270475   5.285231   7.984561   7.835712
    30  H    2.154578   3.452377   4.185777   8.003020   7.646592
    31  H    2.165729   2.672696   3.273935   6.336095   6.162663
    32  H    1.098300   2.170934   3.145969   7.649986   6.746904
    33  H    1.091784   2.089944   2.431019   7.149249   6.389414
                   16         17         18         19         20
    16  H    0.000000
    17  H    2.394392   0.000000
    18  H    4.148255   2.308240   0.000000
    19  H    3.690747   2.925622   1.759423   0.000000
    20  H    5.105029   3.789147   2.461000   2.459842   0.000000
    21  H    3.886786   3.321285   3.072967   2.466973   1.755188
    22  H    5.213019   3.892972   3.863256   4.308590   2.507791
    23  H    3.722280   2.351550   3.243757   3.801927   3.075175
    24  H    7.385240   5.249629   4.492754   5.803622   4.004661
    25  H    6.771617   4.928029   3.879573   4.750427   2.542815
    26  H    7.982732   5.900376   4.141693   5.247553   3.612664
    27  H    6.426820   4.370446   2.419313   3.647893   2.619307
    28  H    8.520743   6.163092   4.935861   6.515159   5.317370
    29  H    8.252274   5.971986   4.307528   5.801990   5.100130
    30  H    7.734930   5.382619   4.619897   6.364307   6.044882
    31  H    6.221089   3.909309   2.919608   4.646660   4.669000
    32  H    7.263548   4.961165   4.752228   6.392489   5.359875
    33  H    6.474804   4.232535   4.512559   6.181830   5.832611
                   21         22         23         24         25
    21  H    0.000000
    22  H    2.435145   0.000000
    23  H    2.495388   1.768469   0.000000
    24  H    5.077342   3.242606   3.977628   0.000000
    25  H    3.744898   2.260166   3.484469   1.754486   0.000000
    26  H    5.275679   4.470732   5.267580   2.582962   2.349094
    27  H    4.179263   3.971597   4.264886   3.059579   2.576066
    28  H    6.701527   5.464702   5.784242   2.542525   3.699746
    29  H    6.596164   5.995336   6.139095   3.737355   4.284003
    30  H    7.099525   6.258244   5.846734   4.089319   5.182699
    31  H    5.636110   5.276029   4.703817   3.956413   4.489055
    32  H    6.167504   4.562797   4.400051   2.297218   3.803860
    33  H    6.368392   5.232539   4.443952   3.818817   4.973496
                   26         27         28         29         30
    26  H    0.000000
    27  H    1.761375   0.000000
    28  H    2.446515   3.066646   0.000000
    29  H    2.454311   2.489936   1.757735   0.000000
    30  H    4.290653   3.850834   2.453969   2.444208   0.000000
    31  H    3.854005   2.738180   3.067376   2.496117   1.756056
    32  H    4.058633   3.959310   2.521619   3.727275   2.609954
    33  H    5.190781   4.526944   3.697074   4.297058   2.368838
                   31         32         33
    31  H    0.000000
    32  H    3.064150   0.000000
    33  H    2.602581   1.767617   0.000000
 Stoichiometry    C10H20N2O
 Framework group  C1[X(C10H20N2O)]
 Deg. of freedom    93
 Full point group                 C1      NOp   1
 Largest Abelian subgroup         C1      NOp   1
 Largest concise Abelian subgroup C1      NOp   1
                         Standard orientation:                         
 ---------------------------------------------------------------------
 Center     Atomic      Atomic             Coordinates (Angstroms)
 Number     Number       Type             X           Y           Z
 ---------------------------------------------------------------------
      1          6           0       -3.919411    0.476297    0.351538
      2          7           0       -2.595977    0.622959    0.935526
      3          6           0       -1.861147   -0.621227    1.106731
      4          6           0       -1.637300   -1.490985   -0.148116
      5          6           0       -0.952308   -0.752924   -1.304028
      6          7           0        0.390106   -0.262843   -0.981166
      7          6           0        1.469802   -1.248406   -0.898120
      8          6           0        2.029726   -1.479743    0.513370
      9          6           0        3.017071   -0.404038    0.978914
     10          6           0        2.457255    1.022016    1.008199
     11          6           0        1.969114    1.536167   -0.361664
     12          6           0        0.565125    1.067504   -0.717449
     13          8           0       -0.370270    1.872284   -0.736586
     14          1           0       -4.520325   -0.205195    0.972692
     15          1           0       -3.943524    0.083973   -0.685569
     16          1           0       -4.419868    1.452349    0.347252
     17          1           0       -2.032475    1.274261    0.389120
     18          1           0       -0.887595   -0.364763    1.542733
     19          1           0       -2.385694   -1.233091    1.854620
     20          1           0       -1.049891   -2.376391    0.134353
     21          1           0       -2.598104   -1.869917   -0.519256
     22          1           0       -0.871364   -1.415065   -2.174975
     23          1           0       -1.541036    0.116586   -1.597853
     24          1           0        2.285072   -0.970661   -1.580072
     25          1           0        1.055346   -2.185284   -1.278928
     26          1           0        2.541248   -2.451072    0.520987
     27          1           0        1.191089   -1.558683    1.216079
     28          1           0        3.892089   -0.422009    0.312257
     29          1           0        3.387242   -0.666476    1.978090
     30          1           0        3.243508    1.696059    1.368238
     31          1           0        1.634575    1.093668    1.731816
     32          1           0        2.686450    1.248387   -1.141969
     33          1           0        1.908931    2.626262   -0.353685
 ---------------------------------------------------------------------
 Rotational constants (GHZ):           1.2769093           0.5236416           0.4735967
 Standard basis: 6-31G(d) (6D, 7F)
 There are   235 symmetry adapted cartesian basis functions of A   symmetry.
 There are   235 symmetry adapted basis functions of A   symmetry.
   235 basis functions,   444 primitive gaussians,   235 cartesian basis functions
    51 alpha electrons       51 beta electrons
       nuclear repulsion energy       893.6202625685 Hartrees.
 NAtoms=   33 NActive=   33 NUniq=   33 SFac= 1.00D+00 NAtFMM=   60 NAOKFM=F Big=F
 Integral buffers will be    131072 words long.
 Raffenetti 2 integral format.
 Two-electron integral symmetry is turned on.
 Nuclear repulsion after empirical dispersion term =      893.5595305931 Hartrees.
 One-electron integrals computed using PRISM.
 NBasis=   235 RedAO= T EigKep=  2.76D-03  NBF=   235
 NBsUse=   235 1.00D-06 EigRej= -1.00D+00 NBFU=   235
 Initial guess from the checkpoint file:  "JID_3121.chk"
 B after Tr=     0.000000   -0.000000   -0.000000
         Rot=    0.999996    0.002746    0.001015    0.000418 Ang=   0.34 deg.
 ExpMin= 1.61D-01 ExpMax= 5.48D+03 ExpMxC= 8.25D+02 IAcc=2 IRadAn=         4 AccDes= 0.00D+00
 Harris functional with IExCor=  402 and IRadAn=       4 diagonalized for initial guess.
 HarFok:  IExCor=  402 AccDes= 0.00D+00 IRadAn=         4 IDoV= 1 UseB2=F ITyADJ=14
 ICtDFT=  3500011 ScaDFX=  1.000000  1.000000  1.000000  1.000000
 FoFCou: FMM=F IPFlag=           0 FMFlag=      100000 FMFlg1=           0
         NFxFlg=           0 DoJE=T BraDBF=F KetDBF=T FulRan=T
         wScrn=  0.000000 ICntrl=       500 IOpCl=  0 I1Cent=   200000004 NGrid=           0
         NMat0=    1 NMatS0=      1 NMatT0=    0 NMatD0=    1 NMtDS0=    0 NMtDT0=    0
 Petite list used in FoFCou.
 Keep R1 ints in memory in canonical form, NReq=391064178.
 Requested convergence on RMS density matrix=1.00D-08 within  32 cycles.
 Requested convergence on MAX density matrix=1.00D-06.
 Requested convergence on             energy=1.00D-06.
 No special actions if energy rises.
 Integral accuracy reduced to 1.0D-05 until final iterations.
[...]
   240    C   11  dyz    Ryd( 3d)     0.00026       2.08741
   241    C   11  dx2y2  Ryd( 3d)     0.00049       2.42672
   242    C   11  dz2    Ryd( 3d)     0.00035       2.37029
 
   243    C   12  S      Cor( 1S)     0.99962     -10.04331
   244    C   12  S      Val( 2S)     0.38634      -0.02178
   245    C   12  S      Ryd( 3S)     0.00269       3.15822
   246    C   12  S      Ryd( 4S)     0.00069       4.51329
   247    C   12  S      Ryd( 5S)     0.00010      11.63204
   248    C   12  px     Val( 2p)     0.44946       0.06063
   249    C   12  px     Ryd( 3p)     0.00615       1.51204
   250    C   12  px     Ryd( 5p)     0.00057       3.79752
   251    C   12  px     Ryd( 4p)     0.00006       2.67913
   252    C   12  py     Val( 2p)     0.39822       0.10645
   253    C   12  py     Ryd( 3p)     0.00492       1.29571
   254    C   12  py     Ryd( 5p)     0.00055       3.16628
   255    C   12  py     Ryd( 4p)     0.00006       2.83944
   256    C   12  pz     Val( 2p)     0.39287      -0.00530
   257    C   12  pz     Ryd( 3p)     0.00123       0.90952
   258    C   12  pz     Ryd( 4p)     0.00049       1.13647
   259    C   12  pz     Ryd( 5p)     0.00002       2.71040
   260    C   12  dxy    Ryd( 3d)     0.00079       2.63151
   261    C   12  dxz    Ryd( 3d)     0.00113       1.89498
   262    C   12  dyz    Ryd( 3d)     0.00162       1.86806
   263    C   12  dx2y2  Ryd( 3d)     0.00201       2.64098
   264    C   12  dz2    Ryd( 3d)     0.00031       2.17475
 
   265    O   13  S      Cor( 1S)     0.99987     -18.72998
   266    O   13  S      Val( 2S)     0.84994      -0.77338
   267    O   13  S      Ryd( 4S)     0.00027       2.05228
   268    O   13  S      Ryd( 3S)     0.00001       1.27808
   269    O   13  S      Ryd( 5S)     0.00000      49.75979
   270    O   13  px     Val( 2p)     0.84457      -0.17078
   271    O   13  px     Ryd( 3p)     0.00086       1.07807
   272    O   13  px     Ryd( 4p)     0.00005       1.11665
   273    O   13  px     Ryd( 5p)     0.00003       5.42512
   274    O   13  py     Val( 2p)     0.86782      -0.16731
   275    O   13  py     Ryd( 4p)     0.00067       1.01877
   276    O   13  py     Ryd( 3p)     0.00003       0.99073
   277    O   13  py     Ryd( 5p)     0.00002       5.31673
   278    O   13  pz     Val( 2p)     0.77673      -0.14304
   279    O   13  pz     Ryd( 3p)     0.00085       0.90296
   280    O   13  pz     Ryd( 4p)     0.00003       0.98058
   281    O   13  pz     Ryd( 5p)     0.00001       5.20119
   282    O   13  dxy    Ryd( 3d)     0.00068       3.70158
   283    O   13  dxz    Ryd( 3d)     0.00040       3.13000
   284    O   13  dyz    Ryd( 3d)     0.00034       3.08987
   285    O   13  dx2y2  Ryd( 3d)     0.00058       3.35508
   286    O   13  dz2    Ryd( 3d)     0.00020       3.21948
 
   287    H   14  S      Val( 1S)     0.41140       0.11740
   288    H   14  S      Ryd( 2S)     0.00016       0.43229
   289    H   14  S      Ryd( 3S)     0.00060       0.75619
   290    H   14  S      Ryd( 4S)     0.00007       1.98622
   291    H   14  px     Ryd( 2p)     0.00007       2.15271
   292    H   14  py     Ryd( 2p)     0.00013       2.18690
   293    H   14  pz     Ryd( 2p)     0.00011       2.19885
 
   294    H   15  S      Val( 1S)     0.42208       0.11301
   295    H   15  S      Ryd( 2S)     0.00013       0.54001
   296    H   15  S      Ryd( 3S)     0.00101       0.81358
   297    H   15  S      Ryd( 4S)     0.00005       1.82860
   298    H   15  px     Ryd( 2p)     0.00007       1.84957
   299    H   15  py     Ryd( 2p)     0.00010       2.02746
   300    H   15  pz     Ryd( 2p)     0.00015       2.67035
 
   301    H   16  S      Val( 1S)     0.40716       0.12507
   302    H   16  S      Ryd( 2S)     0.00008       0.48105
   303    H   16  S      Ryd( 3S)     0.00040       0.67097
   304    H   16  S      Ryd( 4S)     0.00005       2.06960
   305    H   16  px     Ryd( 2p)     0.00005       2.03486
   306    H   16  py     Ryd( 2p)     0.00018       2.59828
   307    H   16  pz     Ryd( 2p)     0.00008       1.87119
 
   308    H   17  S      Val( 1S)     0.30486       0.23038
   309    H   17  S      Ryd( 2S)     0.00135       0.52278
   310    H   17  S      Ryd( 4S)     0.00052       2.24532
   311    H   17  S      Ryd( 3S)     0.00001       0.97877
   312    H   17  px     Ryd( 2p)     0.00022       2.20793
   313    H   17  py     Ryd( 2p)     0.00022       2.36855
   314    H   17  pz     Ryd( 2p)     0.00040       2.10065
 
   315    H   18  S      Val( 1S)     0.40459       0.13886
   316    H   18  S      Ryd( 2S)     0.00133       0.55123
   317    H   18  S      Ryd( 4S)     0.00025       2.35452
   318    H   18  S      Ryd( 3S)     0.00001       0.71022
   319    H   18  px     Ryd( 2p)     0.00014       2.62003
   320    H   18  py     Ryd( 2p)     0.00006       1.97019
   321    H   18  pz     Ryd( 2p)     0.00010       2.16012
 
   322    H   19  S      Val( 1S)     0.40969       0.13036
   323    H   19  S      Ryd( 2S)     0.00021       0.47339
   324    H   19  S      Ryd( 4S)     0.00045       1.48613
   325    H   19  S      Ryd( 3S)     0.00002       1.35687
   326    H   19  px     Ryd( 2p)     0.00008       2.15504
   327    H   19  py     Ryd( 2p)     0.00009       2.18618
   328    H   19  pz     Ryd( 2p)     0.00014       2.38184
 
   329    H   20  S      Val( 1S)     0.39750       0.13528
   330    H   20  S      Ryd( 2S)     0.00073       0.48610
   331    H   20  S      Ryd( 4S)     0.00040       1.91869
   332    H   20  S      Ryd( 3S)     0.00002       0.99650
   333    H   20  px     Ryd( 2p)     0.00009       2.19446
   334    H   20  py     Ryd( 2p)     0.00013       2.56779
   335    H   20  pz     Ryd( 2p)     0.00007       1.97501
 
   336    H   21  S      Val( 1S)     0.40039       0.13282
   337    H   21  S      Ryd( 2S)     0.00050       0.45614
   338    H   21  S      Ryd( 4S)     0.00034       1.77188
   339    H   21  S      Ryd( 3S)     0.00002       1.12627
   340    H   21  px     Ryd( 2p)     0.00012       2.61203
   341    H   21  py     Ryd( 2p)     0.00010       2.11235
   342    H   21  pz     Ryd( 2p)     0.00008       1.98856
 
   343    H   22  S      Val( 1S)     0.40014       0.12872
   344    H   22  S      Ryd( 2S)     0.00063       0.41844
   345    H   22  S      Ryd( 4S)     0.00029       1.55649
   346    H   22  S      Ryd( 3S)     0.00002       1.30981
   347    H   22  px     Ryd( 2p)     0.00006       1.94683
   348    H   22  py     Ryd( 2p)     0.00009       2.30058
   349    H   22  pz     Ryd( 2p)     0.00014       2.53864
 
   350    H   23  S      Val( 1S)     0.38920       0.14905
   351    H   23  S      Ryd( 2S)     0.00087       0.45349
   352    H   23  S      Ryd( 4S)     0.00045       2.19315
   353    H   23  S      Ryd( 3S)     0.00002       0.81999
   354    H   23  px     Ryd( 2p)     0.00007       2.23835
   355    H   23  py     Ryd( 2p)     0.00016       2.48068
   356    H   23  pz     Ryd( 2p)     0.00008       2.12727
 
   357    H   24  S      Val( 1S)     0.40025       0.12336
   358    H   24  S      Ryd( 2S)     0.00113       0.45437
   359    H   24  S      Ryd( 4S)     0.00040       1.79405
   360    H   24  S      Ryd( 3S)     0.00002       1.13207
   361    H   24  px     Ryd( 2p)     0.00010       2.45641
   362    H   24  py     Ryd( 2p)     0.00008       2.01730
   363    H   24  pz     Ryd( 2p)     0.00014       2.38149
 
   364    H   25  S      Val( 1S)     0.38959       0.12998
   365    H   25  S      Ryd( 2S)     0.00234       0.52560
   366    H   25  S      Ryd( 4S)     0.00031       1.72725
   367    H   25  S      Ryd( 3S)     0.00001       1.12711
   368    H   25  px     Ryd( 2p)     0.00006       2.08788
   369    H   25  py     Ryd( 2p)     0.00014       2.64864
   370    H   25  pz     Ryd( 2p)     0.00010       2.08361
 
   371    H   26  S      Val( 1S)     0.39068       0.13831
   372    H   26  S      Ryd( 2S)     0.00225       0.39175
   373    H   26  S      Ryd( 4S)     0.00028       1.64736
   374    H   26  S      Ryd( 3S)     0.00001       1.24327
   375    H   26  px     Ryd( 2p)     0.00008       2.17014
   376    H   26  py     Ryd( 2p)     0.00014       2.62582
   377    H   26  pz     Ryd( 2p)     0.00008       1.93458
 
   378    H   27  S      Val( 1S)     0.40276       0.13496
   379    H   27  S      Ryd( 2S)     0.00108       0.52715
   380    H   27  S      Ryd( 4S)     0.00041       2.24248
   381    H   27  S      Ryd( 3S)     0.00001       0.71550
   382    H   27  px     Ryd( 2p)     0.00011       2.43161
   383    H   27  py     Ryd( 2p)     0.00007       2.04113
   384    H   27  pz     Ryd( 2p)     0.00011       2.32586
 
   385    H   28  S      Val( 1S)     0.40246       0.13337
   386    H   28  S      Ryd( 2S)     0.00144       0.40651
   387    H   28  S      Ryd( 4S)     0.00046       1.85467
   388    H   28  S      Ryd( 3S)     0.00001       1.11267
   389    H   28  px     Ryd( 2p)     0.00014       2.61697
   390    H   28  py     Ryd( 2p)     0.00007       1.90178
   391    H   28  pz     Ryd( 2p)     0.00009       2.25606
 
   392    H   29  S      Val( 1S)     0.39680       0.14230
   393    H   29  S      Ryd( 2S)     0.00091       0.40091
   394    H   29  S      Ryd( 4S)     0.00033       1.43443
   395    H   29  S      Ryd( 3S)     0.00002       1.42972
   396    H   29  px     Ryd( 2p)     0.00008       2.04376
   397    H   29  py     Ryd( 2p)     0.00008       1.97845
   398    H   29  pz     Ryd( 2p)     0.00013       2.68372
 
   399    H   30  S      Val( 1S)     0.39841       0.13668
   400    H   30  S      Ryd( 2S)     0.00035       0.38954
   401    H   30  S      Ryd( 4S)     0.00040       1.53405
   402    H   30  S      Ryd( 3S)     0.00001       1.34498
   403    H   30  px     Ryd( 2p)     0.00010       2.38810
   404    H   30  py     Ryd( 2p)     0.00011       2.25538
   405    H   30  pz     Ryd( 2p)     0.00009       2.05550
 
   406    H   31  S      Val( 1S)     0.40272       0.13445
   407    H   31  S      Ryd( 2S)     0.00094       0.47010
   408    H   31  S      Ryd( 4S)     0.00030       2.18751
   409    H   31  S      Ryd( 3S)     0.00001       0.88008
   410    H   31  px     Ryd( 2p)     0.00011       2.39452
   411    H   31  py     Ryd( 2p)     0.00007       1.95324
   412    H   31  pz     Ryd( 2p)     0.00011       2.33735
 
   413    H   32  S      Val( 1S)     0.39339       0.12442
   414    H   32  S      Ryd( 2S)     0.00059       0.49434
   415    H   32  S      Ryd( 4S)     0.00042       1.62462
   416    H   32  S      Ryd( 3S)     0.00002       1.23162
   417    H   32  px     Ryd( 2p)     0.00010       2.34821
   418    H   32  py     Ryd( 2p)     0.00007       2.04071
   419    H   32  pz     Ryd( 2p)     0.00013       2.41764
 
   420    H   33  S      Val( 1S)     0.38797       0.14624
   421    H   33  S      Ryd( 2S)     0.00020       0.57085
   422    H   33  S      Ryd( 4S)     0.00043       1.60830
   423    H   33  S      Ryd( 3S)     0.00003       1.17394
   424    H   33  px     Ryd( 2p)     0.00009       1.94266
   425    H   33  py     Ryd( 2p)     0.00013       2.83353
   426    H   33  pz     Ryd( 2p)     0.00006       1.94810

 WARNING:  Population inversion found on atom  C    3
           Population inversion found on atom  C    4
           Population inversion found on atom  C    5
           Population inversion found on atom  N    6
           Population inversion found on atom  C    7
           Population inversion found on atom  C    8
           Population inversion found on atom  C    9
           Population inversion found on atom  C   10
           Population inversion found on atom  C   11
           Population inversion found on atom  C   12
           Population inversion found on atom  O   13
           Population inversion found on atom  H   14
           Population inversion found on atom  H   15
           Population inversion found on atom  H   16
           Population inversion found on atom  H   17
           Population inversion found on atom  H   18
           Population inversion found on atom  H   19
           Population inversion found on atom  H   20
           Population inversion found on atom  H   21
           Population inversion found on atom  H   22
           Population inversion found on atom  H   23
           Population inversion found on atom  H   24
           Population inversion found on atom  H   25
           Population inversion found on atom  H   26
           Population inversion found on atom  H   27
           Population inversion found on atom  H   28
           Population inversion found on atom  H   29
           Population inversion found on atom  H   30
           Population inversion found on atom  H   31
           Population inversion found on atom  H   32
           Population inversion found on atom  H   33


 Summary of Natural Population Analysis:                  
                                                          
                                       Natural Population 
                Natural  -----------------------------------------------
    Atom  No    Charge         Core      Valence    Rydberg      Total
 -----------------------------------------------------------------------
      C    1   -0.17954      0.99967     2.17292    0.00696     3.17954
      N    2   -0.35153      0.99975     2.84036    0.01142     3.85153
      C    3   -0.08946      0.99962     2.07716    0.01268     3.08946
      C    4   -0.20716      0.99962     2.19856    0.00899     3.20716
      C    5   -0.08811      0.99959     2.07644    0.01208     3.08811
      N    6   -0.25638      0.99963     2.74379    0.01296     3.75638
      C    7   -0.08705      0.99960     2.07525    0.01221     3.08705
      C    8   -0.19586      0.99961     2.18673    0.00952     3.19586
      C    9   -0.18783      0.99962     2.17925    0.00896     3.18783
      C   10   -0.18758      0.99962     2.17915    0.00881     3.18758
      C   11   -0.23094      0.99959     2.22341    0.00795     3.23094
      C   12    0.35013      0.99962     1.62689    0.02336     2.64987
      O   13   -0.34397      0.99987     3.33906    0.00504     4.34397
      H   14    0.08747      0.00000     0.41140    0.00114     0.41253
      H   15    0.07640      0.00000     0.42208    0.00152     0.42360
      H   16    0.09199      0.00000     0.40716    0.00085     0.40801
      H   17    0.19242      0.00000     0.30486    0.00272     0.30758
      H   18    0.09352      0.00000     0.40459    0.00189     0.40648
      H   19    0.08931      0.00000     0.40969    0.00099     0.41069
      H   20    0.10106      0.00000     0.39750    0.00143     0.39894
      H   21    0.09845      0.00000     0.40039    0.00116     0.40155
      H   22    0.09862      0.00000     0.40014    0.00124     0.40138
      H   23    0.10916      0.00000     0.38920    0.00164     0.39084
      H   24    0.09788      0.00000     0.40025    0.00187     0.40212
      H   25    0.10745      0.00000     0.38959    0.00296     0.39255
      H   26    0.10647      0.00000     0.39068    0.00284     0.39353
      H   27    0.09545      0.00000     0.40276    0.00178     0.40455
      H   28    0.09534      0.00000     0.40246    0.00220     0.40466
      H   29    0.10165      0.00000     0.39680    0.00156     0.39835
      H   30    0.10052      0.00000     0.39841    0.00106     0.39948
      H   31    0.09573      0.00000     0.40272    0.00155     0.40427
      H   32    0.10529      0.00000     0.39339    0.00132     0.39471
      H   33    0.11110      0.00000     0.38797    0.00094     0.38890
 =======================================================================
   * Total *    0.00000     12.99541    37.83099    0.17360    51.00000

                                 Natural Population      
 --------------------------------------------------------
   Core                      12.99541 ( 99.9647% of  13)
   Valence                   37.83099 ( 99.5552% of  38)
   Natural Minimal Basis     50.82640 ( 99.6596% of  51)
   Natural Rydberg Basis      0.17360 (  0.3404% of  51)
 --------------------------------------------------------

    Atom  No          Natural Electron Configuration
 ----------------------------------------------------------------------------
      C    1      [core]2S( 0.53)2p( 1.64)
      N    2      [core]2S( 0.67)2p( 2.17)3p( 0.01)
      C    3      [core]2S( 0.50)2p( 1.58)4p( 0.01)
      C    4      [core]2S( 0.52)2p( 1.68)
      C    5      [core]2S( 0.50)2p( 1.58)4p( 0.01)
      N    6      [core]2S( 0.61)2p( 2.13)3p( 0.01)
      C    7      [core]2S( 0.50)2p( 1.58)4p( 0.01)
      C    8      [core]2S( 0.51)2p( 1.67)
      C    9      [core]2S( 0.51)2p( 1.67)
      C   10      [core]2S( 0.51)2p( 1.67)
      C   11      [core]2S( 0.52)2p( 1.70)
      C   12      [core]2S( 0.39)2p( 1.24)3p( 0.01)3d( 0.01)
      O   13      [core]2S( 0.85)2p( 2.49)
      H   14            1S( 0.41)
      H   15            1S( 0.42)
      H   16            1S( 0.41)
      H   17            1S( 0.30)
      H   18            1S( 0.40)
      H   19            1S( 0.41)
      H   20            1S( 0.40)
      H   21            1S( 0.40)
      H   22            1S( 0.40)
      H   23            1S( 0.39)
      H   24            1S( 0.40)
      H   25            1S( 0.39)
      H   26            1S( 0.39)
      H   27            1S( 0.40)
      H   28            1S( 0.40)
      H   29            1S( 0.40)
      H   30            1S( 0.40)
      H   31            1S( 0.40)
      H   32            1S( 0.39)
      H   33            1S( 0.39)


 NBO analysis skipped by request.
 1\1\GINC-NODE372\SP\UB3LYP\6-311++G(d,p)\C10H20N2O1(1-,2)\VSC10255\30-
 Dec-2020\0\\# B3LYP/6-311++G(d,p) empiricaldispersion=gd3bj scf=xqc po
 p=npa geom=check\\CID_12713373_JID_3121_Energie_anion\\-1,2\C,3.922766
 74,0.4701966686,-0.3883414245\N,2.5838443968,0.6185764417,-0.934445525
 7\C,1.8454639546,-0.6248872784,-1.0947125048\C,1.6289559756,-1.4883220
 508,0.1659534913\C,0.9462544355,-0.7454961219,1.3208084848\N,-0.396004
 8654,-0.2541889247,0.9984041577\C,-1.4776152789,-1.2379813811,0.918925
 5876\C,-2.0284192875,-1.4837887986,-0.4936551393\C,-3.0078489028,-0.40
 99318167,-0.9797105526\C,-2.4451654886,1.0149875308,-1.01649885\C,-1.9
 689754006,1.5409558555,0.353162002\C,-0.5677533304,1.0740803049,0.7222
 697778\O,0.3687514112,1.8774272003,0.7384530903\H,4.5170623266,-0.1746
 065372,-1.0490771927\H,3.979116302,0.0383144696,0.6287669631\H,4.40878
 04065,1.4510616741,-0.3569625945\H,2.0339729271,1.2669899974,-0.371893
 817\H,0.8685577901,-0.3685070626,-1.523397092\H,2.362202583,-1.2401752
 065,-1.8450041267\H,1.0423519784,-2.3764755786,-0.1090931492\H,2.59166
 32327,-1.863611313,0.5358916199\H,0.8651628361,-1.4055207361,2.1931858
 41\H,1.5368091551,0.1234490856,1.6122269975\H,-2.2967547373,-0.9503488
 53,1.5920731754\H,-1.068411758,-2.1714825111,1.3133751778\H,-2.5439866
 44,-2.4530158038,-0.4937203914\H,-1.1850165538,-1.5744749006,-1.188985
 9833\H,-3.8902175428,-0.4195899116,-0.3226536902\H,-3.3674413845,-0.68
 08125172,-1.9802321673\H,-3.2268303189,1.6868968927,-1.3902527558\H,-1
 .6153179413,1.0789602148,-1.7326909435\H,-2.6930839537,1.2600616589,1.
 129879734\H,-1.908324063,2.6307603083,0.3365678\\Version=ES64L-G16RevA
 .03\State=2-A\HF=-578.059325\S2=0.75005\S2-1=0.\S2A=0.75\RMSD=4.780e-0
 9\Dipole=1.7598142,1.6875041,-0.2124862\Quadrupole=-10.5042793,-0.1360
 411,10.6403204,-7.6893023,-1.7494552,4.1745871\PG=C01 [X(C10H20N2O1)]\
 \@


 A BIRD IN THE HAND IS SAFER THAN ONE OVERHEAD.

                       -- NEWTON'S SEVENTH LAW
 Job cpu time:       0 days  0 hours 40 minutes 34.2 seconds.
 Elapsed time:       0 days  0 hours 10 minutes 11.1 seconds.
 File lengths (MBytes):  RWF=    224 Int=      0 D2E=      0 Chk=     24 Scr=      8
 Normal termination of Gaussian 16 at Wed Dec 30 14:53:00 2020.
