 Entering Gaussian System, Link 0=g16
 Initial command:
 /apps/brussel/CO7/broadwell/software/Gaussian/G16.A.03-intel-2017b/g16/l1.exe "/scratch/brussel/102/vsc10255/3543015[1405].master01.hydra.brussel.vsc/Gau-23000.inp" -scrdir="/scratch/brussel/102/vsc10255/3543015[1405].master01.hydra.brussel.vsc/"
 Entering Link 1 = /apps/brussel/CO7/broadwell/software/Gaussian/G16.A.03-intel-2017b/g16/l1.exe.bin PID=     23001.
  
 Copyright (c) 1988,1990,1992,1993,1995,1998,2003,2009,2016,
            Gaussian, Inc.  All Rights Reserved.
  
 This is part of the Gaussian(R) 16 program.  It is based on
 the Gaussian(R) 09 system (copyright 2009, Gaussian, Inc.),
 the Gaussian(R) 03 system (copyright 2003, Gaussian, Inc.),
 the Gaussian(R) 98 system (copyright 1998, Gaussian, Inc.),
 the Gaussian(R) 94 system (copyright 1995, Gaussian, Inc.),
 the Gaussian 92(TM) system (copyright 1992, Gaussian, Inc.),
 the Gaussian 90(TM) system (copyright 1990, Gaussian, Inc.),
 the Gaussian 88(TM) system (copyright 1988, Gaussian, Inc.),
 the Gaussian 86(TM) system (copyright 1986, Carnegie Mellon
 University), and the Gaussian 82(TM) system (copyright 1983,
 Carnegie Mellon University). Gaussian is a federally registered
 trademark of Gaussian, Inc.
  
 This software contains proprietary and confidential information,
 including trade secrets, belonging to Gaussian, Inc.
  
 This software is provided under written license and may be
 used, copied, transmitted, or stored only in accord with that
 written license.
  
 The following legend is applicable only to US Government
 contracts under FAR:
  
                    RESTRICTED RIGHTS LEGEND
  
 Use, reproduction and disclosure by the US Government is
 subject to restrictions as set forth in subparagraphs (a)
 and (c) of the Commercial Computer Software - Restricted
 Rights clause in FAR 52.227-19.
  
 Gaussian, Inc.
 340 Quinnipiac St., Bldg. 40, Wallingford CT 06492
  
  
 ---------------------------------------------------------------
 Warning -- This program may not be used in any manner that
 competes with the business of Gaussian, Inc. or will provide
 assistance to any competitor of Gaussian, Inc.  The licensee
 of this program is prohibited from giving any competitor of
 Gaussian, Inc. access to this program.  By using this program,
 the user acknowledges that Gaussian, Inc. is engaged in the
 business of creating and licensing software in the field of
 computational chemistry and represents and warrants to the
 licensee that it is not a competitor of Gaussian, Inc. and that
 it will not use this program in any manner prohibited above.
 ---------------------------------------------------------------
  

 Cite this work as:
 Gaussian 16, Revision A.03,
 M. J. Frisch, G. W. Trucks, H. B. Schlegel, G. E. Scuseria, 
 M. A. Robb, J. R. Cheeseman, G. Scalmani, V. Barone, 
 G. A. Petersson, H. Nakatsuji, X. Li, M. Caricato, A. V. Marenich, 
 J. Bloino, B. G. Janesko, R. Gomperts, B. Mennucci, H. P. Hratchian, 
 J. V. Ortiz, A. F. Izmaylov, J. L. Sonnenberg, D. Williams-Young, 
 F. Ding, F. Lipparini, F. Egidi, J. Goings, B. Peng, A. Petrone, 
 T. Henderson, D. Ranasinghe, V. G. Zakrzewski, J. Gao, N. Rega, 
 G. Zheng, W. Liang, M. Hada, M. Ehara, K. Toyota, R. Fukuda, 
 J. Hasegawa, M. Ishida, T. Nakajima, Y. Honda, O. Kitao, H. Nakai, 
 T. Vreven, K. Throssell, J. A. Montgomery, Jr., J. E. Peralta, 
 F. Ogliaro, M. J. Bearpark, J. J. Heyd, E. N. Brothers, K. N. Kudin, 
 V. N. Staroverov, T. A. Keith, R. Kobayashi, J. Normand, 
 K. Raghavachari, A. P. Rendell, J. C. Burant, S. S. Iyengar, 
 J. Tomasi, M. Cossi, J. M. Millam, M. Klene, C. Adamo, R. Cammi, 
 J. W. Ochterski, R. L. Martin, K. Morokuma, O. Farkas, 
 J. B. Foresman, and D. J. Fox, Gaussian, Inc., Wallingford CT, 2016.
 
 ******************************************
 Gaussian 16:  ES64L-G16RevA.03 25-Dec-2016
                 8-Dec-2020 
 ******************************************
 %chk=JID_1405.chk
 %mem=8GB
 %nprocshared=4
 Will use up to    4 processors via shared memory.
 -----------------------------------------------------------
 # opt freq B3LYP/6-31G(d) empiricaldispersion=gd3bj scf=xqc
 -----------------------------------------------------------
 1/18=20,19=15,26=3,38=1/1,3;
 2/9=110,12=2,17=6,18=5,40=1/2;
 3/5=1,6=6,7=1,11=2,25=1,30=1,71=1,74=-5,124=41/1,2,3;
 4//1;
 5/5=2,8=3,13=1,38=5/2,8;
 6/7=2,8=2,9=2,10=2,28=1/1;
 7//1,2,3,16;
 1/18=20,19=15,26=3/3(2);
 2/9=110/2;
 99//99;
 2/9=110/2;
 3/5=1,6=6,7=1,11=2,25=1,30=1,71=1,74=-5,124=41/1,2,3;
 4/5=5,16=3,69=1/1;
 5/5=2,8=3,13=1,38=5/2,8;
 7//1,2,3,16;
 1/18=20,19=15,26=3/3(-5);
 2/9=110/2;
 6/7=2,8=2,9=2,10=2,19=2,28=1/1;
 99/9=1/99;
 ------------------------------
 CID_65984253_JID_1405_neutraal
 ------------------------------
 Symbolic Z-matrix:
 Charge =  0 Multiplicity = 1
 C                     0.93217  -0.01001  -0.07279 
 C                     0.4349    0.4919    1.29312 
 C                     1.12153   1.81224   1.66839 
 C                     0.76391   2.9383    0.73847 
 O                     0.00252   3.84722   1.05389 
 C                    -1.12485   0.58255   1.3125 
 C                    -1.73815   1.16207   2.58677 
 C                    -3.14184   0.59669   2.56669 
 C                    -2.9189   -0.81349   2.06325 
 N                    -1.7692   -0.74294   1.15575 
 O                     0.86993  -0.50366   2.24397 
 H                     0.58716   0.6251   -0.8945 
 H                     0.59652  -1.03474  -0.26812 
 H                     2.02773  -0.0435   -0.09788 
 H                     0.86943   2.10662   2.69399 
 H                     2.21254   1.69983   1.65929 
 H                     1.20831   2.89589  -0.2703 
 H                    -1.45448   1.1998    0.46595 
 H                    -1.21842   0.82245   3.48919 
 H                    -1.74768   2.25592   2.58829 
 H                    -3.61647   0.62227   3.55169 
 H                    -3.76744   1.16098   1.86459 
 H                    -2.67932  -1.47735   2.90225 
 H                    -3.80191  -1.21252   1.55596 
 H                    -1.09457  -1.47112   1.40775 
 H                     0.53029  -0.26095   3.1219 
 

 GradGradGradGradGradGradGradGradGradGradGradGradGradGradGradGradGradGrad
 Berny optimization.
 Initialization pass.
                           ----------------------------
                           !    Initial Parameters    !
                           ! (Angstroms and Degrees)  !
 --------------------------                            --------------------------
 ! Name  Definition              Value          Derivative Info.                !
 --------------------------------------------------------------------------------
 ! R1    R(1,2)                  1.5378         estimate D2E/DX2                !
 ! R2    R(1,12)                 1.0944         estimate D2E/DX2                !
 ! R3    R(1,13)                 1.0958         estimate D2E/DX2                !
 ! R4    R(1,14)                 1.0964         estimate D2E/DX2                !
 ! R5    R(2,3)                  1.5348         estimate D2E/DX2                !
 ! R6    R(2,6)                  1.5625         estimate D2E/DX2                !
 ! R7    R(2,11)                 1.4438         estimate D2E/DX2                !
 ! R8    R(3,4)                  1.5035         estimate D2E/DX2                !
 ! R9    R(3,15)                 1.0964         estimate D2E/DX2                !
 ! R10   R(3,16)                 1.0968         estimate D2E/DX2                !
 ! R11   R(4,5)                  1.2269         estimate D2E/DX2                !
 ! R12   R(4,17)                 1.1031         estimate D2E/DX2                !
 ! R13   R(6,7)                  1.5283         estimate D2E/DX2                !
 ! R14   R(6,10)                 1.4821         estimate D2E/DX2                !
 ! R15   R(6,18)                 1.0983         estimate D2E/DX2                !
 ! R16   R(7,8)                  1.5134         estimate D2E/DX2                !
 ! R17   R(7,19)                 1.0954         estimate D2E/DX2                !
 ! R18   R(7,20)                 1.0939         estimate D2E/DX2                !
 ! R19   R(8,9)                  1.5139         estimate D2E/DX2                !
 ! R20   R(8,21)                 1.0937         estimate D2E/DX2                !
 ! R21   R(8,22)                 1.0967         estimate D2E/DX2                !
 ! R22   R(9,10)                 1.4664         estimate D2E/DX2                !
 ! R23   R(9,23)                 1.0964         estimate D2E/DX2                !
 ! R24   R(9,24)                 1.0937         estimate D2E/DX2                !
 ! R25   R(10,25)                1.0241         estimate D2E/DX2                !
 ! R26   R(11,26)                0.9721         estimate D2E/DX2                !
 ! A1    A(2,1,12)             112.0594         estimate D2E/DX2                !
 ! A2    A(2,1,13)             111.3751         estimate D2E/DX2                !
 ! A3    A(2,1,14)             110.6967         estimate D2E/DX2                !
 ! A4    A(12,1,13)            108.1971         estimate D2E/DX2                !
 ! A5    A(12,1,14)            108.3958         estimate D2E/DX2                !
 ! A6    A(13,1,14)            105.8682         estimate D2E/DX2                !
 ! A7    A(1,2,3)              110.6884         estimate D2E/DX2                !
 ! A8    A(1,2,6)              110.6551         estimate D2E/DX2                !
 ! A9    A(1,2,11)             105.2169         estimate D2E/DX2                !
 ! A10   A(3,2,6)              113.1816         estimate D2E/DX2                !
 ! A11   A(3,2,11)             107.2998         estimate D2E/DX2                !
 ! A12   A(6,2,11)             109.4278         estimate D2E/DX2                !
 ! A13   A(2,3,4)              112.7465         estimate D2E/DX2                !
 ! A14   A(2,3,15)             110.906          estimate D2E/DX2                !
 ! A15   A(2,3,16)             110.7818         estimate D2E/DX2                !
 ! A16   A(4,3,15)             108.8306         estimate D2E/DX2                !
 ! A17   A(4,3,16)             107.9517         estimate D2E/DX2                !
 ! A18   A(15,3,16)            105.3073         estimate D2E/DX2                !
 ! A19   A(3,4,5)              122.9169         estimate D2E/DX2                !
 ! A20   A(3,4,17)             116.1655         estimate D2E/DX2                !
 ! A21   A(5,4,17)             120.9018         estimate D2E/DX2                !
 ! A22   A(2,6,7)              115.6534         estimate D2E/DX2                !
 ! A23   A(2,6,10)             112.3824         estimate D2E/DX2                !
 ! A24   A(2,6,18)             108.8226         estimate D2E/DX2                !
 ! A25   A(7,6,10)             104.6454         estimate D2E/DX2                !
 ! A26   A(7,6,18)             108.0056         estimate D2E/DX2                !
 ! A27   A(10,6,18)            106.8944         estimate D2E/DX2                !
 ! A28   A(6,7,8)              102.6784         estimate D2E/DX2                !
 ! A29   A(6,7,19)             112.2677         estimate D2E/DX2                !
 ! A30   A(6,7,20)             112.5711         estimate D2E/DX2                !
 ! A31   A(8,7,19)             109.5837         estimate D2E/DX2                !
 ! A32   A(8,7,20)             111.4386         estimate D2E/DX2                !
 ! A33   A(19,7,20)            108.2419         estimate D2E/DX2                !
 ! A34   A(7,8,9)              102.4636         estimate D2E/DX2                !
 ! A35   A(7,8,21)             112.4467         estimate D2E/DX2                !
 ! A36   A(7,8,22)             110.2037         estimate D2E/DX2                !
 ! A37   A(9,8,21)             112.6563         estimate D2E/DX2                !
 ! A38   A(9,8,22)             110.5121         estimate D2E/DX2                !
 ! A39   A(21,8,22)            108.4807         estimate D2E/DX2                !
 ! A40   A(8,9,10)             106.0484         estimate D2E/DX2                !
 ! A41   A(8,9,23)             109.9824         estimate D2E/DX2                !
 ! A42   A(8,9,24)             112.0363         estimate D2E/DX2                !
 ! A43   A(10,9,23)            109.3531         estimate D2E/DX2                !
 ! A44   A(10,9,24)            111.3144         estimate D2E/DX2                !
 ! A45   A(23,9,24)            108.086          estimate D2E/DX2                !
 ! A46   A(6,10,9)             108.568          estimate D2E/DX2                !
 ! A47   A(6,10,25)            108.8729         estimate D2E/DX2                !
 ! A48   A(9,10,25)            109.2672         estimate D2E/DX2                !
 ! A49   A(2,11,26)            108.502          estimate D2E/DX2                !
 ! D1    D(12,1,2,3)           -69.2409         estimate D2E/DX2                !
 ! D2    D(12,1,2,6)            57.0613         estimate D2E/DX2                !
 ! D3    D(12,1,2,11)          175.1556         estimate D2E/DX2                !
 ! D4    D(13,1,2,3)           169.3966         estimate D2E/DX2                !
 ! D5    D(13,1,2,6)           -64.3012         estimate D2E/DX2                !
 ! D6    D(13,1,2,11)           53.7931         estimate D2E/DX2                !
 ! D7    D(14,1,2,3)            51.8966         estimate D2E/DX2                !
 ! D8    D(14,1,2,6)           178.1988         estimate D2E/DX2                !
 ! D9    D(14,1,2,11)          -63.7068         estimate D2E/DX2                !
 ! D10   D(1,2,3,4)             65.0014         estimate D2E/DX2                !
 ! D11   D(1,2,3,15)          -172.6676         estimate D2E/DX2                !
 ! D12   D(1,2,3,16)           -56.1014         estimate D2E/DX2                !
 ! D13   D(6,2,3,4)            -59.8802         estimate D2E/DX2                !
 ! D14   D(6,2,3,15)            62.4507         estimate D2E/DX2                !
 ! D15   D(6,2,3,16)           179.0169         estimate D2E/DX2                !
 ! D16   D(11,2,3,4)           179.2992         estimate D2E/DX2                !
 ! D17   D(11,2,3,15)          -58.3698         estimate D2E/DX2                !
 ! D18   D(11,2,3,16)           58.1963         estimate D2E/DX2                !
 ! D19   D(1,2,6,7)           -175.9463         estimate D2E/DX2                !
 ! D20   D(1,2,6,10)            63.98           estimate D2E/DX2                !
 ! D21   D(1,2,6,18)           -54.2113         estimate D2E/DX2                !
 ! D22   D(3,2,6,7)            -51.0466         estimate D2E/DX2                !
 ! D23   D(3,2,6,10)          -171.1203         estimate D2E/DX2                !
 ! D24   D(3,2,6,18)            70.6884         estimate D2E/DX2                !
 ! D25   D(11,2,6,7)            68.5608         estimate D2E/DX2                !
 ! D26   D(11,2,6,10)          -51.5129         estimate D2E/DX2                !
 ! D27   D(11,2,6,18)         -169.7042         estimate D2E/DX2                !
 ! D28   D(1,2,11,26)         -176.4577         estimate D2E/DX2                !
 ! D29   D(3,2,11,26)           65.6254         estimate D2E/DX2                !
 ! D30   D(6,2,11,26)          -57.539          estimate D2E/DX2                !
 ! D31   D(2,3,4,5)            105.9249         estimate D2E/DX2                !
 ! D32   D(2,3,4,17)           -72.6421         estimate D2E/DX2                !
 ! D33   D(15,3,4,5)           -17.565          estimate D2E/DX2                !
 ! D34   D(15,3,4,17)          163.868          estimate D2E/DX2                !
 ! D35   D(16,3,4,5)          -131.3739         estimate D2E/DX2                !
 ! D36   D(16,3,4,17)           50.0591         estimate D2E/DX2                !
 ! D37   D(2,6,7,8)           -156.9125         estimate D2E/DX2                !
 ! D38   D(2,6,7,19)           -39.3081         estimate D2E/DX2                !
 ! D39   D(2,6,7,20)            83.1387         estimate D2E/DX2                !
 ! D40   D(10,6,7,8)           -32.7102         estimate D2E/DX2                !
 ! D41   D(10,6,7,19)           84.8942         estimate D2E/DX2                !
 ! D42   D(10,6,7,20)         -152.659          estimate D2E/DX2                !
 ! D43   D(18,6,7,8)            80.9164         estimate D2E/DX2                !
 ! D44   D(18,6,7,19)         -161.4792         estimate D2E/DX2                !
 ! D45   D(18,6,7,20)          -39.0324         estimate D2E/DX2                !
 ! D46   D(2,6,10,9)           139.4755         estimate D2E/DX2                !
 ! D47   D(2,6,10,25)           20.6135         estimate D2E/DX2                !
 ! D48   D(7,6,10,9)            13.2093         estimate D2E/DX2                !
 ! D49   D(7,6,10,25)         -105.6528         estimate D2E/DX2                !
 ! D50   D(18,6,10,9)         -101.2011         estimate D2E/DX2                !
 ! D51   D(18,6,10,25)         139.9369         estimate D2E/DX2                !
 ! D52   D(6,7,8,9)             39.3208         estimate D2E/DX2                !
 ! D53   D(6,7,8,21)           160.5291         estimate D2E/DX2                !
 ! D54   D(6,7,8,22)           -78.3071         estimate D2E/DX2                !
 ! D55   D(19,7,8,9)           -80.1702         estimate D2E/DX2                !
 ! D56   D(19,7,8,21)           41.0381         estimate D2E/DX2                !
 ! D57   D(19,7,8,22)          162.2019         estimate D2E/DX2                !
 ! D58   D(20,7,8,9)           160.0515         estimate D2E/DX2                !
 ! D59   D(20,7,8,21)          -78.7402         estimate D2E/DX2                !
 ! D60   D(20,7,8,22)           42.4236         estimate D2E/DX2                !
 ! D61   D(7,8,9,10)           -31.9054         estimate D2E/DX2                !
 ! D62   D(7,8,9,23)            86.2274         estimate D2E/DX2                !
 ! D63   D(7,8,9,24)          -153.5378         estimate D2E/DX2                !
 ! D64   D(21,8,9,10)         -152.9695         estimate D2E/DX2                !
 ! D65   D(21,8,9,23)          -34.8368         estimate D2E/DX2                !
 ! D66   D(21,8,9,24)           85.398          estimate D2E/DX2                !
 ! D67   D(22,8,9,10)           85.5029         estimate D2E/DX2                !
 ! D68   D(22,8,9,23)         -156.3643         estimate D2E/DX2                !
 ! D69   D(22,8,9,24)          -36.1295         estimate D2E/DX2                !
 ! D70   D(8,9,10,6)            11.6459         estimate D2E/DX2                !
 ! D71   D(8,9,10,25)          130.2593         estimate D2E/DX2                !
 ! D72   D(23,9,10,6)         -106.9039         estimate D2E/DX2                !
 ! D73   D(23,9,10,25)          11.7095         estimate D2E/DX2                !
 ! D74   D(24,9,10,6)          133.7399         estimate D2E/DX2                !
 ! D75   D(24,9,10,25)        -107.6466         estimate D2E/DX2                !
 --------------------------------------------------------------------------------
 Trust Radius=3.00D-01 FncErr=1.00D-07 GrdErr=1.00D-06 EigMax=2.50D+02 EigMin=1.00D-04
 Number of steps in this run=    156 maximum allowed number of steps=    156.
 GradGradGradGradGradGradGradGradGradGradGradGradGradGradGradGradGradGrad

                          Input orientation:                          
 ---------------------------------------------------------------------
 Center     Atomic      Atomic             Coordinates (Angstroms)
 Number     Number       Type             X           Y           Z
 ---------------------------------------------------------------------
      1          6           0        0.932170   -0.010010   -0.072790
      2          6           0        0.434900    0.491900    1.293120
      3          6           0        1.121530    1.812240    1.668390
      4          6           0        0.763910    2.938300    0.738470
      5          8           0        0.002520    3.847220    1.053890
      6          6           0       -1.124850    0.582550    1.312500
      7          6           0       -1.738150    1.162070    2.586770
      8          6           0       -3.141840    0.596690    2.566690
      9          6           0       -2.918900   -0.813490    2.063250
     10          7           0       -1.769200   -0.742940    1.155750
     11          8           0        0.869930   -0.503660    2.243970
     12          1           0        0.587160    0.625100   -0.894500
     13          1           0        0.596520   -1.034740   -0.268120
     14          1           0        2.027730   -0.043500   -0.097880
     15          1           0        0.869430    2.106620    2.693990
     16          1           0        2.212540    1.699830    1.659290
     17          1           0        1.208310    2.895890   -0.270300
     18          1           0       -1.454480    1.199800    0.465950
     19          1           0       -1.218420    0.822450    3.489190
     20          1           0       -1.747680    2.255920    2.588290
     21          1           0       -3.616470    0.622270    3.551690
     22          1           0       -3.767440    1.160980    1.864590
     23          1           0       -2.679320   -1.477350    2.902250
     24          1           0       -3.801910   -1.212520    1.555960
     25          1           0       -1.094570   -1.471120    1.407750
     26          1           0        0.530290   -0.260950    3.121900
 ---------------------------------------------------------------------
                    Distance matrix (angstroms):
                    1          2          3          4          5
     1  C    0.000000
     2  C    1.537824   0.000000
     3  C    2.527481   1.534792   0.000000
     4  C    3.062513   2.529972   1.503547   0.000000
     5  O    4.124546   3.391512   2.402278   1.226923   0.000000
     6  C    2.549801   1.562502   2.585540   3.073513   3.463512
     7  C    3.946852   2.616258   3.073095   3.582110   3.548194
     8  C    4.892085   3.798161   4.523365   4.907179   4.768806
     9  C    4.476493   3.680369   4.834816   5.421629   5.592470
    10  N    3.056779   2.530169   3.892051   4.488017   4.921274
    11  O    2.369587   1.443782   2.399581   3.758305   4.593348
    12  H    1.094351   2.196954   2.874588   2.837028   3.810523
    13  H    1.095850   2.189571   3.482959   4.101986   5.092551
    14  H    1.096359   2.181431   2.717477   3.344825   4.534948
    15  H    3.484125   2.181416   1.096389   2.127648   2.543845
    16  H    2.750091   2.180179   1.096823   2.116659   3.140379
    17  H    2.925665   2.970120   2.222689   1.103135   2.027915
    18  H    2.729465   2.180617   2.908053   2.831590   3.078531
    19  H    4.243316   2.768656   3.125758   3.996613   4.070702
    20  H    4.404246   3.090775   3.045560   3.193049   2.819542
    21  H    5.850364   4.640230   5.235598   5.697888   5.453109
    22  H    5.216416   4.293473   4.936057   4.996013   4.699544
    23  H    4.903755   4.020648   5.175932   6.002978   6.241774
    24  H    5.148822   4.574351   5.779453   6.224493   6.350333
    25  H    2.904224   2.491158   3.969822   4.831653   5.441835
    26  H    3.229632   1.979979   2.600072   3.996313   4.629500
                    6          7          8          9         10
     6  C    0.000000
     7  C    1.528314   0.000000
     8  C    2.375172   1.513408   0.000000
     9  C    2.393986   2.360314   1.513857   0.000000
    10  N    1.482121   2.382823   2.381071   1.466405   0.000000
    11  O    2.454921   3.113559   4.172435   3.805770   2.864696
    12  H    2.793499   4.220740   5.087837   4.807316   3.409911
    13  H    2.842024   4.292675   4.967197   4.224028   2.776542
    14  H    3.509967   4.779393   5.851003   5.452753   4.059246
    15  H    2.865040   2.775454   4.287934   4.824554   4.177145
    16  H    3.536488   4.093575   5.541631   5.728144   4.698397
    17  H    3.646976   4.455402   5.679669   6.019869   4.913275
    18  H    1.098317   2.140040   2.761165   2.957910   2.085452
    19  H    2.191868   1.095364   2.145115   2.757034   2.863345
    20  H    2.194476   1.093893   2.167301   3.326966   3.323522
    21  H    3.350182   2.179574   1.093688   2.182536   3.319146
    22  H    2.760918   2.153964   1.096696   2.158244   2.849619
    23  H    3.030985   2.819905   2.151318   1.096371   2.101889
    24  H    3.232367   3.310642   2.174973   1.093743   2.124284
    25  H    2.056101   2.956006   3.132139   2.047031   1.024146
    26  H    2.593243   2.730782   3.811606   3.650062   3.063611
                   11         12         13         14         15
    11  O    0.000000
    12  H    3.347245   0.000000
    13  H    2.582130   1.774122   0.000000
    14  H    2.652642   1.776759   1.749257   0.000000
    15  H    2.648788   3.892536   4.326282   3.709341   0.000000
    16  H    2.645717   3.212281   3.715414   2.482136   1.743567
    17  H    4.241815   2.435557   3.977957   3.056336   3.086228
    18  H    3.386150   2.519801   3.120678   3.740252   3.344704
    19  H    2.769539   4.745082   4.567334   4.914716   2.576927
    20  H    3.819126   4.498986   4.948009   5.172675   2.623495
    21  H    4.806832   6.118751   5.923337   6.754229   4.802316
    22  H    4.941675   5.182884   5.330458   6.235868   4.804446
    23  H    3.738794   5.431896   4.580205   5.763074   5.047954
    24  H    4.775137   5.352153   4.764983   6.171426   5.842364
    25  H    2.344036   3.538744   2.420486   3.748837   4.279244
    26  H    0.972124   4.113367   3.477840   3.557611   2.429714
                   16         17         18         19         20
    16  H    0.000000
    17  H    2.482409   0.000000
    18  H    3.888589   3.241795   0.000000
    19  H    3.986203   4.931728   3.055830   0.000000
    20  H    4.105560   4.161607   2.388657   1.773858   0.000000
    21  H    6.222513   6.561666   3.811762   2.407202   2.662579
    22  H    6.007717   5.685574   2.703236   3.041616   2.408748
    23  H    5.964035   6.656123   3.821377   2.787079   3.860548
    24  H    6.683268   6.731758   3.538056   3.814827   4.161207
    25  H    4.588592   5.214392   2.854879   3.099709   3.963717
    26  H    2.968813   4.683201   3.623144   2.089652   3.436353
                   21         22         23         24         25
    21  H    0.000000
    22  H    1.777444   0.000000
    23  H    2.389231   3.036697   0.000000
    24  H    2.717311   2.393730   1.772806   0.000000
    25  H    3.916470   3.779006   2.178302   2.723698   0.000000
    26  H    4.261504   4.698212   3.439400   4.703787   2.653864
                   26
    26  H    0.000000
 Stoichiometry    C8H15NO2
 Framework group  C1[X(C8H15NO2)]
 Deg. of freedom    72
 Full point group                 C1      NOp   1
 Largest Abelian subgroup         C1      NOp   1
 Largest concise Abelian subgroup C1      NOp   1
                         Standard orientation:                         
 ---------------------------------------------------------------------
 Center     Atomic      Atomic             Coordinates (Angstroms)
 Number     Number       Type             X           Y           Z
 ---------------------------------------------------------------------
      1          6           0        1.161929   -1.824459   -0.934178
      2          6           0        0.681096   -0.849453    0.153509
      3          6           0        1.856451   -0.032613    0.707494
      4          6           0        2.468714    0.876658   -0.321591
      5          8           0        2.301000    2.092065   -0.321612
      6          6           0       -0.487904    0.039152   -0.380562
      7          6           0       -0.990117    1.118149    0.578234
      8          6           0       -2.396376    1.375411    0.081592
      9          6           0       -2.878660   -0.016036   -0.269178
     10          7           0       -1.693448   -0.755478   -0.715092
     11          8           0        0.196891   -1.686523    1.225594
     12          1           0        1.477544   -1.303085   -1.843112
     13          1           0        0.376912   -2.539539   -1.204911
     14          1           0        2.003199   -2.426235   -0.570676
     15          1           0        1.543389    0.568439    1.569351
     16          1           0        2.645300   -0.693641    1.086679
     17          1           0        3.068888    0.387559   -1.107390
     18          1           0       -0.163531    0.532297   -1.306786
     19          1           0       -1.025390    0.767931    1.615503
     20          1           0       -0.381573    2.026502    0.544022
     21          1           0       -3.023027    1.861039    0.835002
     22          1           0       -2.372152    2.010431   -0.812223
     23          1           0       -3.297350   -0.502600    0.619633
     24          1           0       -3.651421    0.000420   -1.043029
     25          1           0       -1.647811   -1.650951   -0.220197
     26          1           0       -0.172773   -1.115409    1.920001
 ---------------------------------------------------------------------
 Rotational constants (GHZ):           1.5358362           0.8526508           0.6611637
 Standard basis: 6-31G(d) (6D, 7F)
 There are   195 symmetry adapted cartesian basis functions of A   symmetry.
 There are   195 symmetry adapted basis functions of A   symmetry.
   195 basis functions,   368 primitive gaussians,   195 cartesian basis functions
    43 alpha electrons       43 beta electrons
       nuclear repulsion energy       677.1163814277 Hartrees.
 NAtoms=   26 NActive=   26 NUniq=   26 SFac= 1.00D+00 NAtFMM=   60 NAOKFM=F Big=F
 Integral buffers will be    131072 words long.
 Raffenetti 2 integral format.
 Two-electron integral symmetry is turned on.
 Nuclear repulsion after empirical dispersion term =      677.0705215094 Hartrees.
 One-electron integrals computed using PRISM.
 NBasis=   195 RedAO= T EigKep=  2.14D-03  NBF=   195
 NBsUse=   195 1.00D-06 EigRej= -1.00D+00 NBFU=   195
 ExpMin= 1.61D-01 ExpMax= 5.48D+03 ExpMxC= 8.25D+02 IAcc=3 IRadAn=         5 AccDes= 0.00D+00
 Harris functional with IExCor=  402 and IRadAn=       5 diagonalized for initial guess.
 HarFok:  IExCor=  402 AccDes= 0.00D+00 IRadAn=         5 IDoV= 1 UseB2=F ITyADJ=14
 ICtDFT=  3500011 ScaDFX=  1.000000  1.000000  1.000000  1.000000
 FoFCou: FMM=F IPFlag=           0 FMFlag=      100000 FMFlg1=           0
         NFxFlg=           0 DoJE=T BraDBF=F KetDBF=T FulRan=T
         wScrn=  0.000000 ICntrl=       500 IOpCl=  0 I1Cent=   200000004 NGrid=           0
         NMat0=    1 NMatS0=      1 NMatT0=    0 NMatD0=    1 NMtDS0=    0 NMtDT0=    0
 Petite list used in FoFCou.
 Keep R1 ints in memory in canonical form, NReq=186692618.
 Requested convergence on RMS density matrix=1.00D-08 within  32 cycles.
 Requested convergence on MAX density matrix=1.00D-06.
 Requested convergence on             energy=1.00D-06.
 No special actions if energy rises.
 Integral accuracy reduced to 1.0D-05 until final iterations.
 Initial convergence to 1.0D-05 achieved.  Increase integral accuracy.
 SCF Done:  E(RB3LYP) =  -519.091345228     A.U. after   14 cycles
            NFock= 14  Conv=0.40D-08     -V/T= 2.0092
 QCSCF skips out because SCF is already converged.

 **********************************************************************

            Population analysis using the SCF density.

 **********************************************************************

 Orbital symmetries:
       Occupied  (A) (A) (A) (A) (A) (A) (A) (A) (A) (A) (A) (A)
                 (A) (A) (A) (A) (A) (A) (A) (A) (A) (A) (A) (A)
                 (A) (A) (A) (A) (A) (A) (A) (A) (A) (A) (A) (A)
                 (A) (A) (A) (A) (A) (A) (A)
       Virtual   (A) (A) (A) (A) (A) (A) (A) (A) (A) (A) (A) (A)
                 (A) (A) (A) (A) (A) (A) (A) (A) (A) (A) (A) (A)
                 (A) (A) (A) (A) (A) (A) (A) (A) (A) (A) (A) (A)
                 (A) (A) (A) (A) (A) (A) (A) (A) (A) (A) (A) (A)
                 (A) (A) (A) (A) (A) (A) (A) (A) (A) (A) (A) (A)
                 (A) (A) (A) (A) (A) (A) (A) (A) (A) (A) (A) (A)
                 (A) (A) (A) (A) (A) (A) (A) (A) (A) (A) (A) (A)
                 (A) (A) (A) (A) (A) (A) (A) (A) (A) (A) (A) (A)
                 (A) (A) (A) (A) (A) (A) (A) (A) (A) (A) (A) (A)
                 (A) (A) (A) (A) (A) (A) (A) (A) (A) (A) (A) (A)
                 (A) (A) (A) (A) (A) (A) (A) (A) (A) (A) (A) (A)
                 (A) (A) (A) (A) (A) (A) (A) (A) (A) (A) (A) (A)
                 (A) (A) (A) (A) (A) (A) (A) (A)
 The electronic state is 1-A.
 Alpha  occ. eigenvalues --  -19.15683 -19.15477 -14.30524 -10.28313 -10.26223
 Alpha  occ. eigenvalues --  -10.21250 -10.19977 -10.19931 -10.18331 -10.18248
 Alpha  occ. eigenvalues --  -10.18056  -1.04232  -1.02990  -0.91162  -0.80570
 Alpha  occ. eigenvalues --   -0.76688  -0.73051  -0.71291  -0.62398  -0.59513
 Alpha  occ. eigenvalues --   -0.57999  -0.56493  -0.52538  -0.49496  -0.48620
 Alpha  occ. eigenvalues --   -0.46652  -0.45615  -0.43489  -0.42568  -0.41072
 Alpha  occ. eigenvalues --   -0.40974  -0.39172  -0.38294  -0.37341  -0.36781
 Alpha  occ. eigenvalues --   -0.35940  -0.34697  -0.33740  -0.33567  -0.32028
 Alpha  occ. eigenvalues --   -0.28696  -0.25436  -0.21191
 Alpha virt. eigenvalues --   -0.03504   0.05272   0.09574   0.10142   0.10335
 Alpha virt. eigenvalues --    0.11335   0.12495   0.13570   0.14715   0.15487
 Alpha virt. eigenvalues --    0.16721   0.16976   0.17963   0.18966   0.19905
 Alpha virt. eigenvalues --    0.20548   0.21331   0.22068   0.23168   0.23831
 Alpha virt. eigenvalues --    0.26457   0.26984   0.28014   0.29715   0.30098
 Alpha virt. eigenvalues --    0.32023   0.33327   0.50658   0.51320   0.53201
 Alpha virt. eigenvalues --    0.53969   0.54698   0.56319   0.56987   0.58923
 Alpha virt. eigenvalues --    0.60201   0.60748   0.63448   0.64214   0.66208
 Alpha virt. eigenvalues --    0.66724   0.68674   0.70841   0.71578   0.73780
 Alpha virt. eigenvalues --    0.76052   0.77670   0.78229   0.79723   0.81703
 Alpha virt. eigenvalues --    0.82296   0.82825   0.84252   0.85290   0.86068
 Alpha virt. eigenvalues --    0.86769   0.87242   0.88293   0.89456   0.91073
 Alpha virt. eigenvalues --    0.92368   0.92586   0.94334   0.94924   0.95987
 Alpha virt. eigenvalues --    0.97346   0.98664   1.02494   1.03112   1.05868
 Alpha virt. eigenvalues --    1.06581   1.08453   1.13130   1.14711   1.15567
 Alpha virt. eigenvalues --    1.20024   1.22550   1.26703   1.32638   1.36441
 Alpha virt. eigenvalues --    1.38180   1.42351   1.49658   1.49845   1.52394
 Alpha virt. eigenvalues --    1.54768   1.55925   1.58998   1.59698   1.69995
 Alpha virt. eigenvalues --    1.70272   1.72515   1.78153   1.78568   1.79390
 Alpha virt. eigenvalues --    1.82007   1.84112   1.85460   1.86958   1.87992
 Alpha virt. eigenvalues --    1.89894   1.91903   1.92120   1.94869   2.00016
 Alpha virt. eigenvalues --    2.02063   2.03200   2.06382   2.07222   2.09716
 Alpha virt. eigenvalues --    2.10629   2.11695   2.13387   2.15780   2.20408
 Alpha virt. eigenvalues --    2.21148   2.23822   2.25874   2.29193   2.32069
 Alpha virt. eigenvalues --    2.34821   2.35385   2.38298   2.41504   2.42785
 Alpha virt. eigenvalues --    2.46330   2.50963   2.53755   2.55578   2.56978
 Alpha virt. eigenvalues --    2.60647   2.62370   2.70976   2.72595   2.74811
 Alpha virt. eigenvalues --    2.77122   2.83118   2.86569   2.93870   2.96152
 Alpha virt. eigenvalues --    3.01571   3.82651   3.87564   3.97909   4.15365
 Alpha virt. eigenvalues --    4.21720   4.24988   4.32134   4.42071   4.54149
 Alpha virt. eigenvalues --    4.59320   4.71436
          Condensed to atoms (all electrons):
               1          2          3          4          5          6
     1  C    5.185292   0.376086  -0.066540  -0.005730  -0.000087  -0.064853
     2  C    0.376086   4.699257   0.358033  -0.029447  -0.003048   0.358960
     3  C   -0.066540   0.358033   5.403521   0.274148  -0.068100  -0.064580
     4  C   -0.005730  -0.029447   0.274148   4.677449   0.528767   0.004820
     5  O   -0.000087  -0.003048  -0.068100   0.528767   7.976918   0.002298
     6  C   -0.064853   0.358960  -0.064580   0.004820   0.002298   4.937737
     7  C    0.005808  -0.015179  -0.006185  -0.002144  -0.003089   0.364802
     8  C   -0.000138   0.004705   0.000176   0.000020   0.000051  -0.058428
     9  C    0.000147   0.003036  -0.000197  -0.000005  -0.000002  -0.073253
    10  N   -0.004282  -0.033143   0.003417   0.000132   0.000010   0.347733
    11  O   -0.056081   0.216954  -0.043014   0.002990  -0.000020  -0.047875
    12  H    0.361158  -0.024704  -0.003835   0.001965   0.000014  -0.002432
    13  H    0.365394  -0.019366   0.005053   0.000032   0.000000  -0.006301
    14  H    0.360767  -0.026523  -0.007038  -0.000057   0.000008   0.005071
    15  H    0.005777  -0.022703   0.341152  -0.023197   0.002287  -0.008750
    16  H   -0.008828  -0.020162   0.331652  -0.022515   0.003085   0.005757
    17  H    0.002360  -0.002494  -0.104808   0.339878  -0.053517   0.000472
    18  H   -0.006658  -0.035769  -0.001766   0.006026   0.000146   0.356616
    19  H    0.000205  -0.005188  -0.002352   0.000178  -0.000005  -0.046328
    20  H   -0.000143  -0.003046  -0.001013  -0.000059   0.009094  -0.020591
    21  H    0.000002  -0.000143   0.000001  -0.000001  -0.000000   0.005175
    22  H    0.000004   0.000066  -0.000017   0.000000   0.000000  -0.001481
    23  H    0.000023   0.000249  -0.000004  -0.000001   0.000000   0.004117
    24  H   -0.000014  -0.000143   0.000003   0.000000  -0.000000   0.003074
    25  H   -0.002397  -0.010816   0.000898  -0.000029  -0.000000  -0.053483
    26  H    0.008071  -0.023275  -0.003968  -0.000036  -0.000001  -0.007332
               7          8          9         10         11         12
     1  C    0.005808  -0.000138   0.000147  -0.004282  -0.056081   0.361158
     2  C   -0.015179   0.004705   0.003036  -0.033143   0.216954  -0.024704
     3  C   -0.006185   0.000176  -0.000197   0.003417  -0.043014  -0.003835
     4  C   -0.002144   0.000020  -0.000005   0.000132   0.002990   0.001965
     5  O   -0.003089   0.000051  -0.000002   0.000010  -0.000020   0.000014
     6  C    0.364802  -0.058428  -0.073253   0.347733  -0.047875  -0.002432
     7  C    5.151275   0.368330  -0.074645  -0.077860  -0.006577  -0.000042
     8  C    0.368330   5.074287   0.368168  -0.071300  -0.000157  -0.000000
     9  C   -0.074645   0.368168   4.906674   0.327925   0.000216  -0.000016
    10  N   -0.077860  -0.071300   0.327925   6.942550  -0.011466  -0.000178
    11  O   -0.006577  -0.000157   0.000216  -0.011466   8.335845   0.003130
    12  H   -0.000042  -0.000000  -0.000016  -0.000178   0.003130   0.563915
    13  H    0.000094   0.000015  -0.000097   0.003915  -0.000903  -0.023775
    14  H   -0.000113   0.000004   0.000001   0.000086   0.000529  -0.030799
    15  H    0.003036  -0.000023  -0.000008   0.000072  -0.002635  -0.000048
    16  H    0.000084   0.000002   0.000003  -0.000059  -0.000849   0.000041
    17  H   -0.000066   0.000004  -0.000000   0.000003  -0.000130   0.002018
    18  H   -0.057690  -0.004169   0.003147  -0.055854   0.003479   0.003469
    19  H    0.357513  -0.043966   0.001138  -0.000806   0.002874   0.000003
    20  H    0.353266  -0.029933   0.005799   0.005430   0.000143  -0.000006
    21  H   -0.027324   0.368256  -0.029722   0.004360   0.000005  -0.000000
    22  H   -0.038151   0.379930  -0.035418  -0.000960  -0.000004   0.000000
    23  H   -0.002425  -0.029335   0.368625  -0.050008   0.000216  -0.000001
    24  H    0.005858  -0.039152   0.380103  -0.047573  -0.000001   0.000001
    25  H    0.004611   0.003907  -0.037134   0.303284   0.023829   0.000167
    26  H    0.004107  -0.000717   0.000129   0.001228   0.224674  -0.000271
              13         14         15         16         17         18
     1  C    0.365394   0.360767   0.005777  -0.008828   0.002360  -0.006658
     2  C   -0.019366  -0.026523  -0.022703  -0.020162  -0.002494  -0.035769
     3  C    0.005053  -0.007038   0.341152   0.331652  -0.104808  -0.001766
     4  C    0.000032  -0.000057  -0.023197  -0.022515   0.339878   0.006026
     5  O    0.000000   0.000008   0.002287   0.003085  -0.053517   0.000146
     6  C   -0.006301   0.005071  -0.008750   0.005757   0.000472   0.356616
     7  C    0.000094  -0.000113   0.003036   0.000084  -0.000066  -0.057690
     8  C    0.000015   0.000004  -0.000023   0.000002   0.000004  -0.004169
     9  C   -0.000097   0.000001  -0.000008   0.000003  -0.000000   0.003147
    10  N    0.003915   0.000086   0.000072  -0.000059   0.000003  -0.055854
    11  O   -0.000903   0.000529  -0.002635  -0.000849  -0.000130   0.003479
    12  H   -0.023775  -0.030799  -0.000048   0.000041   0.002018   0.003469
    13  H    0.529364  -0.029179  -0.000145   0.000082   0.000049  -0.000224
    14  H   -0.029179   0.571120  -0.000024   0.005390   0.000387  -0.000147
    15  H   -0.000145  -0.000024   0.567131  -0.034633   0.005786   0.000291
    16  H    0.000082   0.005390  -0.034633   0.575240   0.003135  -0.000205
    17  H    0.000049   0.000387   0.005786   0.003135   0.685838  -0.000106
    18  H   -0.000224  -0.000147   0.000291  -0.000205  -0.000106   0.641504
    19  H   -0.000004  -0.000005   0.002010  -0.000120  -0.000002   0.006638
    20  H   -0.000001   0.000001   0.001506   0.000105   0.000232  -0.002642
    21  H   -0.000000  -0.000000   0.000003  -0.000000  -0.000000  -0.000074
    22  H   -0.000000  -0.000000   0.000003   0.000000  -0.000000   0.001820
    23  H    0.000014   0.000000  -0.000001   0.000000   0.000000  -0.000438
    24  H   -0.000005  -0.000000   0.000000  -0.000000  -0.000000   0.000603
    25  H    0.002930  -0.000214   0.000006  -0.000018   0.000002   0.006752
    26  H   -0.000065  -0.000251   0.004883  -0.000828   0.000005   0.000163
              19         20         21         22         23         24
     1  C    0.000205  -0.000143   0.000002   0.000004   0.000023  -0.000014
     2  C   -0.005188  -0.003046  -0.000143   0.000066   0.000249  -0.000143
     3  C   -0.002352  -0.001013   0.000001  -0.000017  -0.000004   0.000003
     4  C    0.000178  -0.000059  -0.000001   0.000000  -0.000001   0.000000
     5  O   -0.000005   0.009094  -0.000000   0.000000   0.000000  -0.000000
     6  C   -0.046328  -0.020591   0.005175  -0.001481   0.004117   0.003074
     7  C    0.357513   0.353266  -0.027324  -0.038151  -0.002425   0.005858
     8  C   -0.043966  -0.029933   0.368256   0.379930  -0.029335  -0.039152
     9  C    0.001138   0.005799  -0.029722  -0.035418   0.368625   0.380103
    10  N   -0.000806   0.005430   0.004360  -0.000960  -0.050008  -0.047573
    11  O    0.002874   0.000143   0.000005  -0.000004   0.000216  -0.000001
    12  H    0.000003  -0.000006  -0.000000   0.000000  -0.000001   0.000001
    13  H   -0.000004  -0.000001  -0.000000  -0.000000   0.000014  -0.000005
    14  H   -0.000005   0.000001  -0.000000  -0.000000   0.000000  -0.000000
    15  H    0.002010   0.001506   0.000003   0.000003  -0.000001   0.000000
    16  H   -0.000120   0.000105  -0.000000   0.000000   0.000000  -0.000000
    17  H   -0.000002   0.000232  -0.000000  -0.000000   0.000000  -0.000000
    18  H    0.006638  -0.002642  -0.000074   0.001820  -0.000438   0.000603
    19  H    0.640591  -0.032645  -0.006750   0.005705   0.002409  -0.000043
    20  H   -0.032645   0.553072   0.001018  -0.006438  -0.000291  -0.000085
    21  H   -0.006750   0.001018   0.582843  -0.033912  -0.007382   0.002820
    22  H    0.005705  -0.006438  -0.033912   0.581834   0.005881  -0.008542
    23  H    0.002409  -0.000291  -0.007382   0.005881   0.651204  -0.051222
    24  H   -0.000043  -0.000085   0.002820  -0.008542  -0.051222   0.608771
    25  H    0.000859  -0.000128  -0.000205  -0.000109  -0.010535   0.004217
    26  H    0.011095  -0.000151  -0.000000   0.000014   0.000038   0.000008
              25         26
     1  C   -0.002397   0.008071
     2  C   -0.010816  -0.023275
     3  C    0.000898  -0.003968
     4  C   -0.000029  -0.000036
     5  O   -0.000000  -0.000001
     6  C   -0.053483  -0.007332
     7  C    0.004611   0.004107
     8  C    0.003907  -0.000717
     9  C   -0.037134   0.000129
    10  N    0.303284   0.001228
    11  O    0.023829   0.224674
    12  H    0.000167  -0.000271
    13  H    0.002930  -0.000065
    14  H   -0.000214  -0.000251
    15  H    0.000006   0.004883
    16  H   -0.000018  -0.000828
    17  H    0.000002   0.000005
    18  H    0.006752   0.000163
    19  H    0.000859   0.011095
    20  H   -0.000128  -0.000151
    21  H   -0.000205  -0.000000
    22  H   -0.000109   0.000014
    23  H   -0.010535   0.000038
    24  H    0.004217   0.000008
    25  H    0.458710  -0.000414
    26  H   -0.000414   0.390570
 Mulliken charges:
               1
     1  C   -0.455342
     2  C    0.257804
     3  C   -0.344637
     4  C    0.246814
     5  O   -0.394808
     6  C    0.059056
     7  C   -0.307293
     8  C   -0.290536
     9  C   -0.114614
    10  N   -0.586656
    11  O   -0.645170
    12  H    0.150226
    13  H    0.173124
    14  H    0.150986
    15  H    0.158225
    16  H    0.163644
    17  H    0.120957
    18  H    0.135087
    19  H    0.106997
    20  H    0.167506
    21  H    0.141030
    22  H    0.149773
    23  H    0.118868
    24  H    0.141322
    25  H    0.305311
    26  H    0.392326
 Sum of Mulliken charges =  -0.00000
 Mulliken charges with hydrogens summed into heavy atoms:
               1
     1  C    0.018993
     2  C    0.257804
     3  C   -0.022768
     4  C    0.367771
     5  O   -0.394808
     6  C    0.194143
     7  C   -0.032790
     8  C    0.000268
     9  C    0.145576
    10  N   -0.281345
    11  O   -0.252845
 Electronic spatial extent (au):  <R**2>=           1874.1027
 Charge=              0.0000 electrons
 Dipole moment (field-independent basis, Debye):
    X=             -0.1365    Y=             -0.9281    Z=              1.4596  Tot=              1.7350
 Quadrupole moment (field-independent basis, Debye-Ang):
   XX=            -64.6898   YY=            -76.3562   ZZ=            -66.1229
   XY=             -6.3319   XZ=             -2.8513   YZ=              1.3325
 Traceless Quadrupole moment (field-independent basis, Debye-Ang):
   XX=              4.3665   YY=             -7.2999   ZZ=              2.9334
   XY=             -6.3319   XZ=             -2.8513   YZ=              1.3325
 Octapole moment (field-independent basis, Debye-Ang**2):
  XXX=             10.4103  YYY=            -11.3794  ZZZ=             13.8796  XYY=            -16.2795
  XXY=            -12.6367  XXZ=              5.9398  XZZ=              4.8858  YZZ=              2.9336
  YYZ=             -2.1152  XYZ=              6.9161
 Hexadecapole moment (field-independent basis, Debye-Ang**3):
 XXXX=          -1395.2324 YYYY=           -739.9353 ZZZZ=           -272.7867 XXXY=            -13.8438
 XXXZ=             -0.7465 YYYX=            -13.7361 YYYZ=             10.1036 ZZZX=            -11.7929
 ZZZY=            -19.5618 XXYY=           -385.8382 XXZZ=           -286.2000 YYZZ=           -172.4074
 XXYZ=             -3.2605 YYXZ=              2.4317 ZZXY=              3.2961
 N-N= 6.770705215094D+02 E-N=-2.562605353918D+03  KE= 5.143438838219D+02
 Calling FoFJK, ICntrl=      2127 FMM=F ISym2X=0 I1Cent= 0 IOpClX= 0 NMat=1 NMatS=1 NMatT=0.
 ***** Axes restored to original set *****
 -------------------------------------------------------------------
 Center     Atomic                   Forces (Hartrees/Bohr)
 Number     Number              X              Y              Z
 -------------------------------------------------------------------
      1        6           0.003562367   -0.005748284    0.001128018
      2        6          -0.002049577   -0.015597248   -0.000377951
      3        6           0.001912310    0.010186294    0.004654641
      4        6          -0.018859070    0.017880133    0.013145768
      5        8           0.013011184   -0.013376472   -0.008582707
      6        6           0.003249145   -0.002512693   -0.000531154
      7        6           0.001297224    0.016601989    0.000263498
      8        6          -0.007078891    0.003677413    0.004545788
      9        6          -0.001362897   -0.011348409    0.000443435
     10        7           0.014486210   -0.005933889   -0.006867875
     11        8          -0.000584360   -0.001479707   -0.004330553
     12        1          -0.001288749    0.000511235    0.001442962
     13        1          -0.003749949    0.002867681    0.001619039
     14        1          -0.000287340    0.002486559    0.001515528
     15        1          -0.004747990    0.000600129   -0.001965765
     16        1           0.000057988   -0.007127258   -0.003944184
     17        1           0.001463967    0.001069016   -0.003778073
     18        1           0.004036068    0.003639115   -0.000135846
     19        1           0.002942067   -0.001360404    0.001728727
     20        1           0.004471881    0.000492094    0.001301327
     21        1          -0.002575973    0.000483300   -0.000649577
     22        1          -0.000093828    0.000529132    0.000804312
     23        1          -0.003696166   -0.002393831    0.003175749
     24        1          -0.001336728   -0.002029819   -0.000578369
     25        1          -0.002749250    0.006032390   -0.001949292
     26        1          -0.000029644    0.001851535   -0.002077448
 -------------------------------------------------------------------
 Cartesian Forces:  Max     0.018859070 RMS     0.006022954

 GradGradGradGradGradGradGradGradGradGradGradGradGradGradGradGradGradGrad
 Berny optimization.
 FormGI is forming the generalized inverse of G from B-inverse, IUseBI=4.
 Internal  Forces:  Max     0.020189796 RMS     0.003497362
 Search for a local minimum.
 Step number   1 out of a maximum of  156
 All quantities printed in internal units (Hartrees-Bohrs-Radians)
 Mixed Optimization -- RFO/linear search
 Second derivative matrix not updated -- first step.
 ITU=  0
     Eigenvalues ---    0.00230   0.00266   0.00306   0.00624   0.00719
     Eigenvalues ---    0.00721   0.00749   0.01113   0.02215   0.02587
     Eigenvalues ---    0.03776   0.04006   0.04019   0.04064   0.04422
     Eigenvalues ---    0.04829   0.05259   0.05261   0.05372   0.05508
     Eigenvalues ---    0.05732   0.05918   0.06039   0.06290   0.06714
     Eigenvalues ---    0.06784   0.06832   0.06884   0.08565   0.08711
     Eigenvalues ---    0.09563   0.09608   0.11371   0.12907   0.14679
     Eigenvalues ---    0.16000   0.16000   0.16000   0.16000   0.16000
     Eigenvalues ---    0.16317   0.16489   0.19420   0.20990   0.21883
     Eigenvalues ---    0.22001   0.26615   0.27592   0.28713   0.28985
     Eigenvalues ---    0.29519   0.29749   0.32008   0.33338   0.33381
     Eigenvalues ---    0.33869   0.34036   0.34050   0.34085   0.34087
     Eigenvalues ---    0.34088   0.34145   0.34200   0.34315   0.34367
     Eigenvalues ---    0.34384   0.34390   0.34989   0.39071   0.43683
     Eigenvalues ---    0.52945   0.92381
 RFO step:  Lambda=-8.03378415D-03 EMin= 2.30000000D-03
 Linear search not attempted -- first point.
 Iteration  1 RMS(Cart)=  0.04185607 RMS(Int)=  0.00054817
 Iteration  2 RMS(Cart)=  0.00072021 RMS(Int)=  0.00018594
 Iteration  3 RMS(Cart)=  0.00000023 RMS(Int)=  0.00018594
 Variable       Old X    -DE/DX   Delta X   Delta X   Delta X     New X
                                 (Linear)    (Quad)   (Total)
    R1        2.90607  -0.00568   0.00000  -0.01924  -0.01924   2.88683
    R2        2.06802  -0.00038   0.00000  -0.00109  -0.00109   2.06694
    R3        2.07086  -0.00182   0.00000  -0.00521  -0.00521   2.06564
    R4        2.07182  -0.00040   0.00000  -0.00114  -0.00114   2.07068
    R5        2.90034   0.00462   0.00000   0.01552   0.01552   2.91586
    R6        2.95270  -0.01121   0.00000  -0.04088  -0.04088   2.91182
    R7        2.72835  -0.00466   0.00000  -0.01169  -0.01169   2.71666
    R8        2.84129   0.00473   0.00000   0.01442   0.01442   2.85572
    R9        2.07188  -0.00059   0.00000  -0.00168  -0.00168   2.07020
   R10        2.07270   0.00082   0.00000   0.00235   0.00235   2.07505
   R11        2.31855  -0.02019   0.00000  -0.02167  -0.02167   2.29688
   R12        2.08462   0.00400   0.00000   0.01173   0.01173   2.09635
   R13        2.88810   0.00596   0.00000   0.01729   0.01738   2.90548
   R14        2.80080  -0.00001   0.00000  -0.00175  -0.00175   2.79905
   R15        2.07552   0.00094   0.00000   0.00271   0.00271   2.07823
   R16        2.85993   0.01174   0.00000   0.03798   0.03810   2.89802
   R17        2.06994   0.00324   0.00000   0.00926   0.00926   2.07920
   R18        2.06716   0.00045   0.00000   0.00129   0.00129   2.06845
   R19        2.86077   0.01415   0.00000   0.04672   0.04663   2.90740
   R20        2.06677   0.00054   0.00000   0.00154   0.00154   2.06831
   R21        2.07246  -0.00019   0.00000  -0.00054  -0.00054   2.07191
   R22        2.77110   0.01007   0.00000   0.02800   0.02788   2.79899
   R23        2.07184   0.00307   0.00000   0.00881   0.00881   2.08065
   R24        2.06688   0.00209   0.00000   0.00593   0.00593   2.07281
   R25        1.93536  -0.00658   0.00000  -0.01479  -0.01479   1.92057
   R26        1.83705  -0.00140   0.00000  -0.00261  -0.00261   1.83444
    A1        1.95581  -0.00200   0.00000  -0.01848  -0.01877   1.93704
    A2        1.94386  -0.00350   0.00000  -0.02058  -0.02082   1.92305
    A3        1.93202  -0.00155   0.00000  -0.00303  -0.00302   1.92900
    A4        1.88840   0.00160   0.00000  -0.00177  -0.00228   1.88611
    A5        1.89186   0.00179   0.00000   0.00996   0.00993   1.90179
    A6        1.84775   0.00418   0.00000   0.03772   0.03779   1.88554
    A7        1.93188   0.00385   0.00000   0.01901   0.01855   1.95042
    A8        1.93130   0.00128   0.00000  -0.00282  -0.00282   1.92847
    A9        1.83638  -0.00331   0.00000  -0.00974  -0.01007   1.82632
   A10        1.97539  -0.00674   0.00000  -0.04724  -0.04713   1.92826
   A11        1.87274   0.00282   0.00000   0.02863   0.02875   1.90148
   A12        1.90988   0.00242   0.00000   0.01614   0.01648   1.92635
   A13        1.96780   0.00473   0.00000   0.01387   0.01396   1.98176
   A14        1.93568  -0.00110   0.00000  -0.01196  -0.01203   1.92364
   A15        1.93351  -0.00725   0.00000  -0.05160  -0.05164   1.88187
   A16        1.89945  -0.00338   0.00000  -0.02212  -0.02211   1.87734
   A17        1.88411   0.00281   0.00000   0.02962   0.02981   1.91392
   A18        1.83796   0.00426   0.00000   0.04542   0.04523   1.88319
   A19        2.14531   0.00504   0.00000   0.02224   0.02215   2.16746
   A20        2.02747  -0.00133   0.00000  -0.00377  -0.00386   2.02361
   A21        2.11013  -0.00371   0.00000  -0.01793  -0.01802   2.09212
   A22        2.01853   0.00078   0.00000   0.00574   0.00606   2.02459
   A23        1.96144  -0.00581   0.00000  -0.02881  -0.02901   1.93244
   A24        1.89931  -0.00073   0.00000  -0.02961  -0.02942   1.86989
   A25        1.82641   0.00527   0.00000   0.02940   0.02942   1.85583
   A26        1.88505  -0.00145   0.00000  -0.00605  -0.00684   1.87821
   A27        1.86566   0.00231   0.00000   0.03444   0.03404   1.89970
   A28        1.79208  -0.00364   0.00000  -0.01979  -0.01981   1.77226
   A29        1.95944  -0.00007   0.00000  -0.01921  -0.01934   1.94010
   A30        1.96474   0.00014   0.00000   0.00275   0.00275   1.96748
   A31        1.91260   0.00076   0.00000   0.00064   0.00022   1.91282
   A32        1.94497   0.00435   0.00000   0.04721   0.04703   1.99200
   A33        1.88918  -0.00140   0.00000  -0.01025  -0.01053   1.87865
   A34        1.78833   0.00046   0.00000   0.00896   0.00898   1.79730
   A35        1.96256   0.00141   0.00000   0.01734   0.01731   1.97988
   A36        1.92342  -0.00097   0.00000  -0.01120  -0.01125   1.91216
   A37        1.96622  -0.00058   0.00000   0.00053   0.00023   1.96645
   A38        1.92880   0.00053   0.00000  -0.00029  -0.00024   1.92856
   A39        1.89335  -0.00079   0.00000  -0.01435  -0.01427   1.87907
   A40        1.85089  -0.00320   0.00000  -0.00889  -0.00891   1.84199
   A41        1.91955  -0.00034   0.00000  -0.00322  -0.00332   1.91624
   A42        1.95540   0.00179   0.00000   0.00400   0.00401   1.95942
   A43        1.90857   0.00374   0.00000   0.03459   0.03456   1.94313
   A44        1.94280  -0.00004   0.00000  -0.00637  -0.00631   1.93650
   A45        1.88646  -0.00183   0.00000  -0.01855  -0.01854   1.86792
   A46        1.89487   0.00059   0.00000  -0.00368  -0.00369   1.89118
   A47        1.90019  -0.00160   0.00000  -0.01307  -0.01296   1.88723
   A48        1.90707   0.00132   0.00000   0.01052   0.01032   1.91739
   A49        1.89372  -0.00428   0.00000  -0.02547  -0.02547   1.86825
    D1       -1.20848   0.00241   0.00000   0.03892   0.03910  -1.16938
    D2        0.99591  -0.00255   0.00000  -0.01057  -0.01057   0.98533
    D3        3.05704  -0.00093   0.00000   0.00152   0.00172   3.05877
    D4        2.95653   0.00426   0.00000   0.06891   0.06881   3.02534
    D5       -1.12227  -0.00070   0.00000   0.01942   0.01913  -1.10313
    D6        0.93887   0.00092   0.00000   0.03152   0.03143   0.97030
    D7        0.90577   0.00224   0.00000   0.03685   0.03693   0.94270
    D8        3.11016  -0.00272   0.00000  -0.01264  -0.01274   3.09742
    D9       -1.11189  -0.00110   0.00000  -0.00055  -0.00044  -1.11234
   D10        1.13449   0.00140   0.00000   0.02014   0.01989   1.15438
   D11       -3.01362  -0.00042   0.00000  -0.00750  -0.00774  -3.02135
   D12       -0.97915  -0.00031   0.00000   0.00939   0.00932  -0.96983
   D13       -1.04511   0.00179   0.00000   0.04480   0.04466  -1.00045
   D14        1.08997  -0.00003   0.00000   0.01717   0.01703   1.10700
   D15        3.12443   0.00009   0.00000   0.03406   0.03408  -3.12467
   D16        3.12936   0.00101   0.00000   0.03421   0.03442  -3.11940
   D17       -1.01874  -0.00081   0.00000   0.00658   0.00679  -1.01195
   D18        1.01572  -0.00070   0.00000   0.02347   0.02385   1.03957
   D19       -3.07084   0.00073   0.00000   0.02079   0.02063  -3.05021
   D20        1.11666  -0.00233   0.00000  -0.00011  -0.00015   1.11651
   D21       -0.94617  -0.00120   0.00000  -0.00609  -0.00653  -0.95269
   D22       -0.89093   0.00172   0.00000   0.00796   0.00821  -0.88273
   D23       -2.98661  -0.00133   0.00000  -0.01294  -0.01257  -2.99918
   D24        1.23374  -0.00020   0.00000  -0.01892  -0.01895   1.21479
   D25        1.19661   0.00259   0.00000   0.02475   0.02482   1.22143
   D26       -0.89907  -0.00047   0.00000   0.00385   0.00404  -0.89503
   D27       -2.96190   0.00067   0.00000  -0.00213  -0.00234  -2.96424
   D28       -3.07977   0.00072   0.00000  -0.00763  -0.00772  -3.08749
   D29        1.14538  -0.00338   0.00000  -0.03817  -0.03789   1.10749
   D30       -1.00425   0.00162   0.00000  -0.00818  -0.00837  -1.01262
   D31        1.84874   0.00121   0.00000   0.00778   0.00775   1.85649
   D32       -1.26784   0.00083   0.00000  -0.01663  -0.01667  -1.28451
   D33       -0.30657   0.00184   0.00000   0.02973   0.02974  -0.27683
   D34        2.86004   0.00146   0.00000   0.00531   0.00532   2.86535
   D35       -2.29291  -0.00289   0.00000  -0.02757  -0.02754  -2.32044
   D36        0.87370  -0.00327   0.00000  -0.05199  -0.05196   0.82174
   D37       -2.73864   0.00206   0.00000   0.01712   0.01684  -2.72180
   D38       -0.68606   0.00081   0.00000  -0.00259  -0.00252  -0.68858
   D39        1.45104  -0.00098   0.00000  -0.02849  -0.02851   1.42254
   D40       -0.57090  -0.00088   0.00000   0.00617   0.00599  -0.56491
   D41        1.48168  -0.00213   0.00000  -0.01354  -0.01337   1.46831
   D42       -2.66440  -0.00392   0.00000  -0.03944  -0.03936  -2.70376
   D43        1.41226   0.00360   0.00000   0.05647   0.05611   1.46837
   D44       -2.81834   0.00235   0.00000   0.03676   0.03675  -2.78160
   D45       -0.68124   0.00056   0.00000   0.01086   0.01076  -0.67048
   D46        2.43431   0.00192   0.00000   0.00929   0.00923   2.44354
   D47        0.35977   0.00091   0.00000   0.00624   0.00631   0.36609
   D48        0.23055   0.00088   0.00000  -0.00049  -0.00035   0.23020
   D49       -1.84399  -0.00013   0.00000  -0.00354  -0.00327  -1.84725
   D50       -1.76629  -0.00086   0.00000  -0.02159  -0.02233  -1.78862
   D51        2.44236  -0.00187   0.00000  -0.02464  -0.02525   2.41711
   D52        0.68628  -0.00036   0.00000  -0.01236  -0.01227   0.67401
   D53        2.80176  -0.00006   0.00000   0.00262   0.00282   2.80458
   D54       -1.36672  -0.00079   0.00000  -0.01183  -0.01173  -1.37844
   D55       -1.39923   0.00132   0.00000   0.02017   0.02019  -1.37905
   D56        0.71625   0.00163   0.00000   0.03515   0.03528   0.75153
   D57        2.83096   0.00089   0.00000   0.02070   0.02073   2.85169
   D58        2.79343  -0.00019   0.00000   0.00258   0.00246   2.79589
   D59       -1.37428   0.00012   0.00000   0.01755   0.01755  -1.35672
   D60        0.74043  -0.00062   0.00000   0.00311   0.00300   0.74344
   D61       -0.55685  -0.00033   0.00000   0.00311   0.00326  -0.55360
   D62        1.50495   0.00212   0.00000   0.03738   0.03741   1.54236
   D63       -2.67974   0.00076   0.00000   0.01439   0.01444  -2.66530
   D64       -2.66982  -0.00200   0.00000  -0.02347  -0.02338  -2.69320
   D65       -0.60802   0.00044   0.00000   0.01080   0.01078  -0.59724
   D66        1.49048  -0.00092   0.00000  -0.01220  -0.01220   1.47828
   D67        1.49231  -0.00097   0.00000  -0.00516  -0.00505   1.48725
   D68       -2.72907   0.00148   0.00000   0.02911   0.02910  -2.69997
   D69       -0.63058   0.00012   0.00000   0.00611   0.00613  -0.62445
   D70        0.20326   0.00014   0.00000  -0.00080  -0.00092   0.20234
   D71        2.27345  -0.00069   0.00000  -0.01265  -0.01281   2.26065
   D72       -1.86583   0.00038   0.00000  -0.00999  -0.01002  -1.87585
   D73        0.20437  -0.00045   0.00000  -0.02185  -0.02191   0.18246
   D74        2.33420   0.00026   0.00000  -0.00533  -0.00530   2.32891
   D75       -1.87879  -0.00057   0.00000  -0.01718  -0.01718  -1.89597
         Item               Value     Threshold  Converged?
 Maximum Force            0.020190     0.000450     NO 
 RMS     Force            0.003497     0.000300     NO 
 Maximum Displacement     0.156997     0.001800     NO 
 RMS     Displacement     0.041958     0.001200     NO 
 Predicted change in Energy=-4.300940D-03
 GradGradGradGradGradGradGradGradGradGradGradGradGradGradGradGradGradGrad

                          Input orientation:                          
 ---------------------------------------------------------------------
 Center     Atomic      Atomic             Coordinates (Angstroms)
 Number     Number       Type             X           Y           Z
 ---------------------------------------------------------------------
      1          6           0        0.923661   -0.043934   -0.060993
      2          6           0        0.442485    0.460942    1.298147
      3          6           0        1.095637    1.808070    1.671653
      4          6           0        0.685414    2.948664    0.769196
      5          8           0       -0.076530    3.837650    1.095510
      6          6           0       -1.093421    0.583327    1.315269
      7          6           0       -1.706301    1.200458    2.583129
      8          6           0       -3.125126    0.619239    2.552326
      9          6           0       -2.898780   -0.818515    2.053618
     10          7           0       -1.726885   -0.745432    1.150756
     11          8           0        0.875007   -0.542444    2.232396
     12          1           0        0.573836    0.607409   -0.867045
     13          1           0        0.539229   -1.050106   -0.247214
     14          1           0        2.018161   -0.088454   -0.088766
     15          1           0        0.829918    2.086117    2.697424
     16          1           0        2.184985    1.676687    1.629040
     17          1           0        1.125231    2.944078   -0.249224
     18          1           0       -1.377269    1.219946    0.464624
     19          1           0       -1.184264    0.851897    3.486768
     20          1           0       -1.670677    2.294453    2.580697
     21          1           0       -3.631219    0.654568    3.522152
     22          1           0       -3.736812    1.181854    1.837190
     23          1           0       -2.704363   -1.483644    2.909231
     24          1           0       -3.774424   -1.218850    1.528135
     25          1           0       -1.046492   -1.454445    1.410126
     26          1           0        0.542709   -0.279984    3.105915
 ---------------------------------------------------------------------
                    Distance matrix (angstroms):
                    1          2          3          4          5
     1  C    0.000000
     2  C    1.527643   0.000000
     3  C    2.541960   1.543006   0.000000
     4  C    3.114742   2.554910   1.511180   0.000000
     5  O    4.171880   3.422367   2.413527   1.215458   0.000000
     6  C    2.521145   1.540870   2.533571   3.009530   3.416575
     7  C    3.931487   2.610622   3.008461   3.473742   3.438596
     8  C    4.864350   3.784953   4.472554   4.808949   4.666307
     9  C    4.436508   3.656747   4.795854   5.356102   5.528376
    10  N    2.997637   2.486611   3.841659   4.428445   4.871486
    11  O    2.347448   1.437595   2.426526   3.790084   4.624193
    12  H    1.093776   2.174111   2.856370   2.858532   3.835238
    13  H    1.093091   2.163508   3.487236   4.128514   5.106098
    14  H    1.095757   2.169819   2.747167   3.425842   4.604838
    15  H    3.486370   2.179283   1.095501   2.117294   2.540797
    16  H    2.721706   2.150309   1.098069   2.146152   3.173148
    17  H    3.000714   3.004407   2.231851   1.109341   2.012712
    18  H    2.677301   2.140643   2.813907   2.708485   2.990371
    19  H    4.222851   2.754855   3.067060   3.908623   3.982451
    20  H    4.379174   3.077686   2.952189   3.043139   2.669933
    21  H    5.837274   4.645294   5.205582   5.610256   5.353169
    22  H    5.179349   4.275138   4.875665   4.880401   4.582685
    23  H    4.904850   4.034806   5.177546   5.976261   6.205745
    24  H    5.096838   4.544989   5.735882   6.150962   6.279314
    25  H    2.834649   2.428642   3.911665   4.774690   5.389442
    26  H    3.198460   1.956283   2.592838   3.988081   4.623862
                    6          7          8          9         10
     6  C    0.000000
     7  C    1.537512   0.000000
     8  C    2.378954   1.533568   0.000000
     9  C    2.402007   2.403881   1.538531   0.000000
    10  N    1.481196   2.416321   2.404537   1.481160   0.000000
    11  O    2.446057   3.134306   4.177670   3.788092   2.825065
    12  H    2.746419   4.177850   5.037316   4.756321   3.345896
    13  H    2.788370   4.256559   4.904247   4.143352   2.680004
    14  H    3.479159   4.761505   5.824911   5.412864   3.999176
    15  H    2.804990   2.688841   4.220801   4.770175   4.116686
    16  H    3.470135   4.034747   5.492534   5.678993   4.625813
    17  H    3.597666   4.368066   5.596346   5.971001   4.868983
    18  H    1.099749   2.143993   2.788252   2.999203   2.110857
    19  H    2.189930   1.100264   2.166623   2.789939   2.881467
    20  H    2.205104   1.094577   2.218687   3.387716   3.359880
    21  H    3.363900   2.210219   1.094505   2.205229   3.348135
    22  H    2.760099   2.163272   1.096410   2.179591   2.868000
    23  H    3.067282   2.882166   2.174061   1.101031   2.143048
    24  H    3.237427   3.353088   2.202073   1.096884   2.135171
    25  H    2.040519   2.976541   3.150477   2.061422   1.016321
    26  H    2.574615   2.742820   3.816815   3.638844   3.031558
                   11         12         13         14         15
    11  O    0.000000
    12  H    3.319548   0.000000
    13  H    2.553220   1.769957   0.000000
    14  H    2.626918   1.782139   1.771192   0.000000
    15  H    2.669760   3.867505   4.311762   3.728744   0.000000
    16  H    2.646624   3.157466   3.696517   2.468685   1.773495
    17  H    4.286827   2.479065   4.036944   3.165331   3.083187
    18  H    3.362109   2.440359   3.054966   3.680637   3.256889
    19  H    2.785361   4.701742   4.531079   4.891240   2.490641
    20  H    3.827506   4.446445   4.905797   5.139241   2.511972
    21  H    4.837601   6.078631   5.874238   6.745836   4.757232
    22  H    4.939460   5.120991   5.254609   6.200217   4.734207
    23  H    3.762427   5.420272   4.546646   5.765134   5.027843
    24  H    4.750866   5.289563   4.667756   6.119331   5.787056
    25  H    2.280358   3.473070   2.329115   3.674875   4.208757
    26  H    0.970743   4.070976   3.440432   3.524149   2.418220
                   16         17         18         19         20
    16  H    0.000000
    17  H    2.501446   0.000000
    18  H    3.775463   3.121653   0.000000
    19  H    3.934879   4.865041   3.050584   0.000000
    20  H    4.019131   4.030826   2.391321   1.771590   0.000000
    21  H    6.201357   6.487599   3.840367   2.455154   2.723837
    22  H    5.946079   5.576559   2.729987   3.057037   2.461624
    23  H    5.960898   6.651793   3.879005   2.845875   3.930708
    24  H    6.626377   6.670502   3.581220   3.851385   4.228113
    25  H    4.504925   5.178497   2.855828   3.106548   3.976692
    26  H    2.950727   4.689442   3.593399   2.099677   3.435500
                   21         22         23         24         25
    21  H    0.000000
    22  H    1.768693   0.000000
    23  H    2.409707   3.052885   0.000000
    24  H    2.739764   2.420808   1.767081   0.000000
    25  H    3.948342   3.790815   2.235331   2.740629   0.000000
    26  H    4.297478   4.696907   3.468567   4.691322   2.603962
                   26
    26  H    0.000000
 Stoichiometry    C8H15NO2
 Framework group  C1[X(C8H15NO2)]
 Deg. of freedom    72
 Full point group                 C1      NOp   1
 Largest Abelian subgroup         C1      NOp   1
 Largest concise Abelian subgroup C1      NOp   1
                         Standard orientation:                         
 ---------------------------------------------------------------------
 Center     Atomic      Atomic             Coordinates (Angstroms)
 Number     Number       Type             X           Y           Z
 ---------------------------------------------------------------------
      1          6           0        1.111266   -1.857636   -0.934764
      2          6           0        0.662177   -0.886654    0.155743
      3          6           0        1.839925   -0.048550    0.695520
      4          6           0        2.423120    0.900856   -0.325351
      5          8           0        2.257553    2.104900   -0.311132
      6          6           0       -0.458077    0.032444   -0.368251
      7          6           0       -0.919626    1.144791    0.587572
      8          6           0       -2.341014    1.415716    0.079552
      9          6           0       -2.857861    0.008809   -0.267667
     10          7           0       -1.666618   -0.754537   -0.705935
     11          8           0        0.166481   -1.728617    1.210287
     12          1           0        1.433733   -1.318884   -1.830368
     13          1           0        0.286354   -2.517843   -1.214931
     14          1           0        1.938327   -2.481150   -0.577156
     15          1           0        1.517012    0.548334    1.555508
     16          1           0        2.617084   -0.743667    1.039893
     17          1           0        3.035692    0.436820   -1.125390
     18          1           0       -0.081062    0.514203   -1.282153
     19          1           0       -0.961452    0.783964    1.626146
     20          1           0       -0.262510    2.019926    0.566709
     21          1           0       -2.973939    1.929246    0.810055
     22          1           0       -2.296361    2.041150   -0.819866
     23          1           0       -3.321667   -0.447690    0.620455
     24          1           0       -3.621963    0.029161   -1.054361
     25          1           0       -1.619047   -1.637671   -0.205217
     26          1           0       -0.175603   -1.143054    1.904864
 ---------------------------------------------------------------------
 Rotational constants (GHZ):           1.5023926           0.8813207           0.6695237
 Standard basis: 6-31G(d) (6D, 7F)
 There are   195 symmetry adapted cartesian basis functions of A   symmetry.
 There are   195 symmetry adapted basis functions of A   symmetry.
   195 basis functions,   368 primitive gaussians,   195 cartesian basis functions
    43 alpha electrons       43 beta electrons
       nuclear repulsion energy       678.8870209333 Hartrees.
 NAtoms=   26 NActive=   26 NUniq=   26 SFac= 1.00D+00 NAtFMM=   60 NAOKFM=F Big=F
 Integral buffers will be    131072 words long.
 Raffenetti 2 integral format.
 Two-electron integral symmetry is turned on.
 Nuclear repulsion after empirical dispersion term =      678.8407927805 Hartrees.
 One-electron integrals computed using PRISM.
 NBasis=   195 RedAO= T EigKep=  2.08D-03  NBF=   195
 NBsUse=   195 1.00D-06 EigRej= -1.00D+00 NBFU=   195
 Initial guess from the checkpoint file:  "JID_1405.chk"
 B after Tr=     0.000000    0.000000    0.000000
         Rot=    0.999988   -0.002084   -0.000942    0.004423 Ang=  -0.57 deg.
 ExpMin= 1.61D-01 ExpMax= 5.48D+03 ExpMxC= 8.25D+02 IAcc=2 IRadAn=         4 AccDes= 0.00D+00
 Harris functional with IExCor=  402 and IRadAn=       4 diagonalized for initial guess.
 HarFok:  IExCor=  402 AccDes= 0.00D+00 IRadAn=         4 IDoV= 1 UseB2=F ITyADJ=14
 ICtDFT=  3500011 ScaDFX=  1.000000  1.000000  1.000000  1.000000
 FoFCou: FMM=F IPFlag=           0 FMFlag=      100000 FMFlg1=           0
         NFxFlg=           0 DoJE=T BraDBF=F KetDBF=T FulRan=T
         wScrn=  0.000000 ICntrl=       500 IOpCl=  0 I1Cent=   200000004 NGrid=           0
         NMat0=    1 NMatS0=      1 NMatT0=    0 NMatD0=    1 NMtDS0=    0 NMtDT0=    0
 Petite list used in FoFCou.
 Keep R1 ints in memory in canonical form, NReq=186692618.
 Requested convergence on RMS density matrix=1.00D-08 within  32 cycles.
 Requested convergence on MAX density matrix=1.00D-06.
 Requested convergence on             energy=1.00D-06.
 No special actions if energy rises.
 Integral accuracy reduced to 1.0D-05 until final iterations.
 Initial convergence to 1.0D-05 achieved.  Increase integral accuracy.
 SCF Done:  E(RB3LYP) =  -519.095211656     A.U. after   11 cycles
            NFock= 11  Conv=0.84D-08     -V/T= 2.0093
 QCSCF skips out because SCF is already converged.
 Calling FoFJK, ICntrl=      2127 FMM=F ISym2X=0 I1Cent= 0 IOpClX= 0 NMat=1 NMatS=1 NMatT=0.
 ***** Axes restored to original set *****
 -------------------------------------------------------------------
 Center     Atomic                   Forces (Hartrees/Bohr)
 Number     Number              X              Y              Z
 -------------------------------------------------------------------
      1        6           0.002462159   -0.000825603   -0.001004036
      2        6          -0.000548792   -0.005502929   -0.001066268
      3        6           0.002742491    0.003615564    0.002562318
      4        6          -0.001416179    0.004101502    0.001591984
      5        8           0.002017653   -0.003338955   -0.000413679
      6        6          -0.001320869   -0.003752507   -0.000195902
      7        6          -0.002343121    0.000694700   -0.000019448
      8        6          -0.000197884    0.000693207    0.001117961
      9        6           0.000432326   -0.000719785    0.000002298
     10        7          -0.000867907    0.002703442    0.000280755
     11        8           0.000093787    0.002973951   -0.000635348
     12        1           0.000190491    0.000269213   -0.000311610
     13        1          -0.000761000    0.000952667    0.000004867
     14        1          -0.000525430    0.000397627    0.000167429
     15        1          -0.000659482   -0.000659234   -0.000523095
     16        1          -0.000535120    0.000095605   -0.001515346
     17        1           0.000618486   -0.000898701   -0.001258102
     18        1           0.000096418    0.000477480   -0.000359813
     19        1           0.000296806   -0.000712919    0.000398799
     20        1          -0.000104857   -0.001197576   -0.000159080
     21        1          -0.000216029   -0.000079932   -0.000266247
     22        1          -0.000000386   -0.000249235   -0.000201007
     23        1           0.000106136   -0.000046379   -0.000375773
     24        1           0.000012597    0.000698818    0.000059985
     25        1          -0.000035057    0.000591740    0.001007505
     26        1           0.000462763   -0.000281761    0.001110855
 -------------------------------------------------------------------
 Cartesian Forces:  Max     0.005502929 RMS     0.001432751

 GradGradGradGradGradGradGradGradGradGradGradGradGradGradGradGradGradGrad
 Berny optimization.
 Using GEDIIS/GDIIS optimizer.
 FormGI is forming the generalized inverse of G from B-inverse, IUseBI=4.
 Internal  Forces:  Max     0.004071509 RMS     0.000837708
 Search for a local minimum.
 Step number   2 out of a maximum of  156
 All quantities printed in internal units (Hartrees-Bohrs-Radians)
 Mixed Optimization -- En-DIIS/RFO-DIIS
 Update second derivatives using D2CorX and points    1    2
 DE= -3.87D-03 DEPred=-4.30D-03 R= 8.99D-01
 TightC=F SS=  1.41D+00  RLast= 2.66D-01 DXNew= 5.0454D-01 7.9877D-01
 Trust test= 8.99D-01 RLast= 2.66D-01 DXMaxT set to 5.05D-01
 ITU=  1  0
 Use linear search instead of GDIIS.
     Eigenvalues ---    0.00230   0.00265   0.00308   0.00621   0.00719
     Eigenvalues ---    0.00724   0.00747   0.01111   0.02239   0.02563
     Eigenvalues ---    0.03757   0.04046   0.04110   0.04269   0.04464
     Eigenvalues ---    0.04803   0.05336   0.05424   0.05476   0.05567
     Eigenvalues ---    0.05722   0.05884   0.06054   0.06299   0.06522
     Eigenvalues ---    0.06732   0.06798   0.06946   0.08471   0.08678
     Eigenvalues ---    0.09453   0.09613   0.11372   0.13005   0.14982
     Eigenvalues ---    0.15858   0.15982   0.16000   0.16000   0.16000
     Eigenvalues ---    0.16150   0.17065   0.20068   0.21006   0.21724
     Eigenvalues ---    0.22148   0.27304   0.27814   0.27943   0.28862
     Eigenvalues ---    0.29711   0.30194   0.32052   0.33215   0.33833
     Eigenvalues ---    0.33884   0.34035   0.34050   0.34053   0.34086
     Eigenvalues ---    0.34122   0.34169   0.34185   0.34318   0.34367
     Eigenvalues ---    0.34389   0.34514   0.35367   0.38959   0.43645
     Eigenvalues ---    0.52985   0.90325
 RFO step:  Lambda=-7.76236825D-04 EMin= 2.30067030D-03
 Quartic linear search produced a step of -0.03827.
 Iteration  1 RMS(Cart)=  0.04373381 RMS(Int)=  0.00063454
 Iteration  2 RMS(Cart)=  0.00094590 RMS(Int)=  0.00007158
 Iteration  3 RMS(Cart)=  0.00000038 RMS(Int)=  0.00007158
 Variable       Old X    -DE/DX   Delta X   Delta X   Delta X     New X
                                 (Linear)    (Quad)   (Total)
    R1        2.88683   0.00118   0.00074   0.00150   0.00224   2.88906
    R2        2.06694   0.00033   0.00004   0.00078   0.00082   2.06775
[...]
   138    C    7  px     Val( 2p)     0.52791       0.04161
   139    C    7  px     Ryd( 3p)     0.00122       1.49741
   140    C    7  px     Ryd( 4p)     0.00056       1.51162
   141    C    7  px     Ryd( 5p)     0.00006       2.31505
   142    C    7  py     Val( 2p)     0.58072       0.04155
   143    C    7  py     Ryd( 3p)     0.00218       1.00070
   144    C    7  py     Ryd( 4p)     0.00036       1.02232
   145    C    7  py     Ryd( 5p)     0.00003       2.96947
   146    C    7  pz     Val( 2p)     0.57149       0.04081
   147    C    7  pz     Ryd( 3p)     0.00110       0.94839
   148    C    7  pz     Ryd( 4p)     0.00041       1.19681
   149    C    7  pz     Ryd( 5p)     0.00004       3.11071
   150    C    7  dxy    Ryd( 3d)     0.00042       2.22772
   151    C    7  dxz    Ryd( 3d)     0.00024       2.10307
   152    C    7  dyz    Ryd( 3d)     0.00031       2.36812
   153    C    7  dx2y2  Ryd( 3d)     0.00032       2.37982
   154    C    7  dz2    Ryd( 3d)     0.00046       2.32930
 
   155    C    8  S      Cor( 1S)     0.99965      -9.91479
   156    C    8  S      Val( 2S)     0.51935      -0.12511
   157    C    8  S      Ryd( 4S)     0.00088       2.09490
   158    C    8  S      Ryd( 3S)     0.00061       1.79703
   159    C    8  S      Ryd( 5S)     0.00001      18.10788
   160    C    8  px     Val( 2p)     0.53789       0.03978
   161    C    8  px     Ryd( 3p)     0.00088       1.64370
   162    C    8  px     Ryd( 4p)     0.00038       2.28295
   163    C    8  px     Ryd( 5p)     0.00004       2.64841
   164    C    8  py     Val( 2p)     0.57231       0.03906
   165    C    8  py     Ryd( 3p)     0.00145       1.08585
   166    C    8  py     Ryd( 4p)     0.00031       1.28901
   167    C    8  py     Ryd( 5p)     0.00004       2.72688
   168    C    8  pz     Val( 2p)     0.56514       0.03799
   169    C    8  pz     Ryd( 3p)     0.00116       0.95510
   170    C    8  pz     Ryd( 4p)     0.00033       1.14469
   171    C    8  pz     Ryd( 5p)     0.00004       2.75459
   172    C    8  dxy    Ryd( 3d)     0.00027       2.06069
   173    C    8  dxz    Ryd( 3d)     0.00039       2.19124
   174    C    8  dyz    Ryd( 3d)     0.00032       2.41426
   175    C    8  dx2y2  Ryd( 3d)     0.00040       2.48108
   176    C    8  dz2    Ryd( 3d)     0.00033       2.19489
 
   177    C    9  S      Cor( 1S)     0.99965      -9.94614
   178    C    9  S      Val( 2S)     0.50328      -0.11532
   179    C    9  S      Ryd( 4S)     0.00118       1.55848
   180    C    9  S      Ryd( 3S)     0.00031       1.45406
   181    C    9  S      Ryd( 5S)     0.00001      19.87182
   182    C    9  px     Val( 2p)     0.51233       0.04286
   183    C    9  px     Ryd( 3p)     0.00206       1.21376
   184    C    9  px     Ryd( 4p)     0.00034       1.42772
   185    C    9  px     Ryd( 5p)     0.00003       2.47242
   186    C    9  py     Val( 2p)     0.50409       0.04190
   187    C    9  py     Ryd( 4p)     0.00250       1.06886
   188    C    9  py     Ryd( 3p)     0.00040       0.93740
   189    C    9  py     Ryd( 5p)     0.00003       2.41281
   190    C    9  pz     Val( 2p)     0.55885       0.03305
   191    C    9  pz     Ryd( 3p)     0.00099       1.13348
   192    C    9  pz     Ryd( 4p)     0.00032       1.70255
   193    C    9  pz     Ryd( 5p)     0.00008       2.44721
   194    C    9  dxy    Ryd( 3d)     0.00069       2.40852
   195    C    9  dxz    Ryd( 3d)     0.00037       1.97278
   196    C    9  dyz    Ryd( 3d)     0.00059       2.41020
   197    C    9  dx2y2  Ryd( 3d)     0.00046       2.08895
   198    C    9  dz2    Ryd( 3d)     0.00055       2.27342
 
   199    N   10  S      Cor( 1S)     0.99975     -14.00301
   200    N   10  S      Val( 2S)     0.68197      -0.42901
   201    N   10  S      Ryd( 3S)     0.00081       1.63653
   202    N   10  S      Ryd( 4S)     0.00029       2.06473
   203    N   10  S      Ryd( 5S)     0.00000      34.61890
   204    N   10  px     Val( 2p)     0.60987      -0.05672
   205    N   10  px     Ryd( 3p)     0.00126       1.01354
   206    N   10  px     Ryd( 4p)     0.00034       1.26740
   207    N   10  px     Ryd( 5p)     0.00000       4.46618
   208    N   10  py     Val( 2p)     0.70192      -0.07959
   209    N   10  py     Ryd( 3p)     0.00234       0.72394
   210    N   10  py     Ryd( 4p)     0.00033       0.91771
   211    N   10  py     Ryd( 5p)     0.00001       4.38665
   212    N   10  pz     Val( 2p)     0.83536      -0.08902
   213    N   10  pz     Ryd( 3p)     0.00340       0.81142
   214    N   10  pz     Ryd( 4p)     0.00026       0.82405
   215    N   10  pz     Ryd( 5p)     0.00001       4.24098
   216    N   10  dxy    Ryd( 3d)     0.00050       3.04328
   217    N   10  dxz    Ryd( 3d)     0.00038       2.59156
   218    N   10  dyz    Ryd( 3d)     0.00073       2.79446
   219    N   10  dx2y2  Ryd( 3d)     0.00017       2.57426
   220    N   10  dz2    Ryd( 3d)     0.00059       2.70722
 
   221    O   11  S      Cor( 1S)     0.99989     -18.78568
   222    O   11  S      Val( 2S)     0.83715      -0.78581
   223    O   11  S      Ryd( 4S)     0.00025       1.45965
   224    O   11  S      Ryd( 3S)     0.00012       1.23877
   225    O   11  S      Ryd( 5S)     0.00000      49.64609
   226    O   11  px     Val( 2p)     0.94647      -0.18116
   227    O   11  px     Ryd( 3p)     0.00144       0.45614
   228    O   11  px     Ryd( 4p)     0.00064       1.25446
   229    O   11  px     Ryd( 5p)     0.00000       5.21234
   230    O   11  py     Val( 2p)     0.85357      -0.18885
   231    O   11  py     Ryd( 3p)     0.00098       0.65424
   232    O   11  py     Ryd( 4p)     0.00023       1.26930
   233    O   11  py     Ryd( 5p)     0.00002       5.32785
   234    O   11  pz     Val( 2p)     0.73794      -0.16464
   235    O   11  pz     Ryd( 3p)     0.00114       0.55071
   236    O   11  pz     Ryd( 4p)     0.00053       1.25451
   237    O   11  pz     Ryd( 5p)     0.00001       5.40702
   238    O   11  dxy    Ryd( 3d)     0.00045       3.17665
   239    O   11  dxz    Ryd( 3d)     0.00010       3.27373
   240    O   11  dyz    Ryd( 3d)     0.00071       3.67713
   241    O   11  dx2y2  Ryd( 3d)     0.00043       3.23542
   242    O   11  dz2    Ryd( 3d)     0.00017       3.32226
 
   243    H   12  S      Val( 1S)     0.39906       0.14725
   244    H   12  S      Ryd( 3S)     0.00040       0.92693
   245    H   12  S      Ryd( 2S)     0.00023       0.91117
   246    H   12  S      Ryd( 4S)     0.00006       1.41575
   247    H   12  px     Ryd( 2p)     0.00007       2.04318
   248    H   12  py     Ryd( 2p)     0.00009       2.10421
   249    H   12  pz     Ryd( 2p)     0.00013       2.57845
 
   250    H   13  S      Val( 1S)     0.38947       0.16894
   251    H   13  S      Ryd( 2S)     0.00032       0.47606
   252    H   13  S      Ryd( 4S)     0.00045       1.50990
   253    H   13  S      Ryd( 3S)     0.00008       1.38040
   254    H   13  px     Ryd( 2p)     0.00013       2.43034
   255    H   13  py     Ryd( 2p)     0.00008       2.33123
   256    H   13  pz     Ryd( 2p)     0.00006       2.05238
 
   257    H   14  S      Val( 1S)     0.39925       0.15094
   258    H   14  S      Ryd( 2S)     0.00028       0.51948
   259    H   14  S      Ryd( 3S)     0.00036       1.13961
   260    H   14  S      Ryd( 4S)     0.00008       1.50098
   261    H   14  px     Ryd( 2p)     0.00009       2.46565
   262    H   14  py     Ryd( 2p)     0.00009       2.24474
   263    H   14  pz     Ryd( 2p)     0.00008       1.99834
 
   264    H   15  S      Val( 1S)     0.38949       0.15411
   265    H   15  S      Ryd( 2S)     0.00061       0.61433
   266    H   15  S      Ryd( 4S)     0.00050       1.63752
   267    H   15  S      Ryd( 3S)     0.00006       0.99540
   268    H   15  px     Ryd( 2p)     0.00006       2.03712
   269    H   15  py     Ryd( 2p)     0.00011       2.22314
   270    H   15  pz     Ryd( 2p)     0.00011       2.59951
 
   271    H   16  S      Val( 1S)     0.39135       0.15074
   272    H   16  S      Ryd( 2S)     0.00053       0.42857
   273    H   16  S      Ryd( 4S)     0.00046       1.61607
   274    H   16  S      Ryd( 3S)     0.00003       1.21466
   275    H   16  px     Ryd( 2p)     0.00010       2.48283
   276    H   16  py     Ryd( 2p)     0.00011       2.26875
   277    H   16  pz     Ryd( 2p)     0.00007       2.09800
 
   278    H   17  S      Val( 1S)     0.46337       0.10146
   279    H   17  S      Ryd( 3S)     0.00177       0.66711
   280    H   17  S      Ryd( 4S)     0.00011       2.43024
   281    H   17  S      Ryd( 2S)     0.00009       0.52348
   282    H   17  px     Ryd( 2p)     0.00015       2.13007
   283    H   17  py     Ryd( 2p)     0.00006       2.17414
   284    H   17  pz     Ryd( 2p)     0.00021       2.29779
 
   285    H   18  S      Val( 1S)     0.40147       0.16814
   286    H   18  S      Ryd( 2S)     0.00066       0.63205
   287    H   18  S      Ryd( 3S)     0.00035       2.08377
   288    H   18  S      Ryd( 4S)     0.00014       3.00871
   289    H   18  px     Ryd( 2p)     0.00006       2.22390
   290    H   18  py     Ryd( 2p)     0.00012       2.28013
   291    H   18  pz     Ryd( 2p)     0.00018       2.63322
 
   292    H   19  S      Val( 1S)     0.40330       0.14635
   293    H   19  S      Ryd( 2S)     0.00183       0.57710
   294    H   19  S      Ryd( 4S)     0.00059       1.61256
   295    H   19  S      Ryd( 3S)     0.00003       1.07853
   296    H   19  px     Ryd( 2p)     0.00009       2.04397
   297    H   19  py     Ryd( 2p)     0.00007       2.05256
   298    H   19  pz     Ryd( 2p)     0.00013       2.82361
 
   299    H   20  S      Val( 1S)     0.38866       0.18279
   300    H   20  S      Ryd( 2S)     0.00059       0.47020
   301    H   20  S      Ryd( 4S)     0.00028       2.08084
   302    H   20  S      Ryd( 3S)     0.00001       0.94766
   303    H   20  px     Ryd( 2p)     0.00012       2.19794
   304    H   20  py     Ryd( 2p)     0.00011       2.69196
   305    H   20  pz     Ryd( 2p)     0.00007       2.00181
 
   306    H   21  S      Val( 1S)     0.39837       0.15280
   307    H   21  S      Ryd( 2S)     0.00179       0.35173
   308    H   21  S      Ryd( 4S)     0.00031       1.65039
   309    H   21  S      Ryd( 3S)     0.00002       1.24016
   310    H   21  px     Ryd( 2p)     0.00010       2.19715
   311    H   21  py     Ryd( 2p)     0.00008       2.02300
   312    H   21  pz     Ryd( 2p)     0.00012       2.51687
 
   313    H   22  S      Val( 1S)     0.40453       0.15119
   314    H   22  S      Ryd( 2S)     0.00034       0.41695
   315    H   22  S      Ryd( 4S)     0.00027       1.69103
   316    H   22  S      Ryd( 3S)     0.00002       1.24599
   317    H   22  px     Ryd( 2p)     0.00009       2.02513
   318    H   22  py     Ryd( 2p)     0.00014       2.69076
   319    H   22  pz     Ryd( 2p)     0.00009       1.99479
 
   320    H   23  S      Val( 1S)     0.40444       0.14275
   321    H   23  S      Ryd( 2S)     0.00041       0.36817
   322    H   23  S      Ryd( 4S)     0.00029       1.46110
   323    H   23  S      Ryd( 3S)     0.00002       1.31073
   324    H   23  px     Ryd( 2p)     0.00014       2.66777
   325    H   23  py     Ryd( 2p)     0.00011       2.09799
   326    H   23  pz     Ryd( 2p)     0.00008       1.96060
 
   327    H   24  S      Val( 1S)     0.41505       0.14058
   328    H   24  S      Ryd( 2S)     0.00052       0.44409
   329    H   24  S      Ryd( 4S)     0.00030       1.93424
   330    H   24  S      Ryd( 3S)     0.00001       1.09690
   331    H   24  px     Ryd( 2p)     0.00006       2.04689
   332    H   24  py     Ryd( 2p)     0.00009       2.09567
   333    H   24  pz     Ryd( 2p)     0.00017       2.66596
 
   334    H   25  S      Val( 1S)     0.32074       0.20713
   335    H   25  S      Ryd( 2S)     0.00161       0.46328
   336    H   25  S      Ryd( 4S)     0.00052       2.28859
   337    H   25  S      Ryd( 3S)     0.00002       0.82464
   338    H   25  px     Ryd( 2p)     0.00019       2.00436
   339    H   25  py     Ryd( 2p)     0.00020       2.53731
   340    H   25  pz     Ryd( 2p)     0.00039       2.29473
 
   341    H   26  S      Val( 1S)     0.25520       0.19790
   342    H   26  S      Ryd( 2S)     0.00728       0.40670
   343    H   26  S      Ryd( 4S)     0.00042       2.21704
   344    H   26  S      Ryd( 3S)     0.00006       0.86313
   345    H   26  px     Ryd( 2p)     0.00078       1.81418
   346    H   26  py     Ryd( 2p)     0.00047       2.17025
   347    H   26  pz     Ryd( 2p)     0.00050       2.50901

 WARNING:  Population inversion found on atom  C    1
           Population inversion found on atom  C    3
           Population inversion found on atom  C    4
           Population inversion found on atom  O    5
           Population inversion found on atom  C    6
           Population inversion found on atom  C    7
           Population inversion found on atom  C    8
           Population inversion found on atom  C    9
           Population inversion found on atom  O   11
           Population inversion found on atom  H   12
           Population inversion found on atom  H   13
           Population inversion found on atom  H   14
           Population inversion found on atom  H   15
           Population inversion found on atom  H   16
           Population inversion found on atom  H   17
           Population inversion found on atom  H   19
           Population inversion found on atom  H   20
           Population inversion found on atom  H   21
           Population inversion found on atom  H   22
           Population inversion found on atom  H   23
           Population inversion found on atom  H   24
           Population inversion found on atom  H   25
           Population inversion found on atom  H   26


 Summary of Natural Population Analysis:                  
                                                          
                                       Natural Population 
                Natural  -----------------------------------------------
    Atom  No    Charge         Core      Valence    Rydberg      Total
 -----------------------------------------------------------------------
      C    1   -0.29008      0.99961     2.28406    0.00641     3.29008
      C    2    0.13882      0.99949     1.84499    0.01670     2.86118
      C    3   -0.25217      0.99957     2.24109    0.01151     3.25217
      C    4    0.25923      0.99973     1.72115    0.01988     2.74077
      O    5   -0.26031      0.99988     3.25374    0.00669     4.26031
      C    6   -0.02186      0.99954     2.00886    0.01346     3.02186
      C    7   -0.20444      0.99962     2.19544    0.00938     3.20444
      C    8   -0.20219      0.99965     2.19469    0.00786     3.20219
      C    9   -0.08910      0.99965     2.07854    0.01091     3.08910
      N   10   -0.34028      0.99975     2.82912    0.01141     3.84028
      O   11   -0.38222      0.99989     3.37514    0.00720     4.38222
      H   12    0.09996      0.00000     0.39906    0.00097     0.40004
      H   13    0.10941      0.00000     0.38947    0.00113     0.39059
      H   14    0.09977      0.00000     0.39925    0.00099     0.40023
      H   15    0.10906      0.00000     0.38949    0.00145     0.39094
      H   16    0.10734      0.00000     0.39135    0.00131     0.39266
      H   17    0.03425      0.00000     0.46337    0.00238     0.46575
      H   18    0.09702      0.00000     0.40147    0.00151     0.40298
      H   19    0.09396      0.00000     0.40330    0.00274     0.40604
      H   20    0.11016      0.00000     0.38866    0.00118     0.38984
      H   21    0.09921      0.00000     0.39837    0.00242     0.40079
      H   22    0.09452      0.00000     0.40453    0.00095     0.40548
      H   23    0.09451      0.00000     0.40444    0.00105     0.40549
      H   24    0.08380      0.00000     0.41505    0.00115     0.41620
      H   25    0.17634      0.00000     0.32074    0.00291     0.32366
      H   26    0.23529      0.00000     0.25520    0.00951     0.26471
 =======================================================================
   * Total *   -0.00000     10.99638    31.85057    0.15305    43.00000

                                 Natural Population      
 --------------------------------------------------------
   Core                      10.99638 ( 99.9671% of  11)
   Valence                   31.85057 ( 99.5330% of  32)
   Natural Minimal Basis     42.84695 ( 99.6441% of  43)
   Natural Rydberg Basis      0.15305 (  0.3559% of  43)
 --------------------------------------------------------

    Atom  No          Natural Electron Configuration
 ----------------------------------------------------------------------------
      C    1      [core]2S( 0.54)2p( 1.75)
      C    2      [core]2S( 0.44)2p( 1.40)3p( 0.01)
      C    3      [core]2S( 0.53)2p( 1.72)
      C    4      [core]2S( 0.45)2p( 1.27)4S( 0.01)4p( 0.01)
      O    5      [core]2S( 0.85)2p( 2.41)
      C    6      [core]2S( 0.47)2p( 1.54)3p( 0.01)
      C    7      [core]2S( 0.52)2p( 1.68)
      C    8      [core]2S( 0.52)2p( 1.68)
      C    9      [core]2S( 0.50)2p( 1.58)
      N   10      [core]2S( 0.68)2p( 2.15)3p( 0.01)
      O   11      [core]2S( 0.84)2p( 2.54)
      H   12            1S( 0.40)
      H   13            1S( 0.39)
      H   14            1S( 0.40)
      H   15            1S( 0.39)
      H   16            1S( 0.39)
      H   17            1S( 0.46)
      H   18            1S( 0.40)
      H   19            1S( 0.40)
      H   20            1S( 0.39)
      H   21            1S( 0.40)
      H   22            1S( 0.40)
      H   23            1S( 0.40)
      H   24            1S( 0.42)
      H   25            1S( 0.32)
      H   26            1S( 0.26)2S( 0.01)


 NBO analysis skipped by request.
 1\1\GINC-NODE200\SP\UB3LYP\6-311++G(d,p)\C8H15N1O2(1-,2)\VSC10255\08-D
 ec-2020\0\\# B3LYP/6-311++G(d,p) empiricaldispersion=gd3bj scf=xqc pop
 =npa geom=check\\CID_65984253_JID_1405_Energie_anion\\-1,2\C,0,0.97388
 81012,-0.1480380707,0.0446425377\C,0,0.4759568718,0.4731495011,1.34867
 08844\C,0,1.0913046635,1.882561234,1.5759938667\C,0,0.6374954057,2.903
 8493837,0.5603026607\O,0,-0.223875792,3.7318151244,0.7697655144\C,0,-1
 .064642353,0.5373548826,1.3720446824\C,0,-1.6978973068,1.181391609,2.6
 380957195\C,0,-3.03160333,0.4156647166,2.8323946663\C,0,-3.0358427927,
 -0.637480847,1.6894048737\N,0,-1.6472358313,-0.8041544778,1.2457078811
 \O,0,0.9514027436,-0.399422094,2.3831098585\H,0,0.6499859418,0.4438512
 547,-0.8174388797\H,0,0.5616688772,-1.1527596848,-0.0635249624\H,0,2.0
 668846277,-0.2051726912,0.0458142536\H,0,0.8111302312,2.251200675,2.56
 81724734\H,0,2.181681991,1.7760015175,1.5305213024\H,0,1.1337873526,2.
 8493442902,-0.4334094532\H,0,-1.3897826742,1.1199938367,0.4994358468\H
 ,0,-1.0528730199,1.0381049701,3.5157082818\H,0,-1.8267033943,2.2595398
 119,2.5137497986\H,0,-3.0588616782,-0.073851585,3.8117233883\H,0,-3.90
 13711707,1.0779219091,2.7797723246\H,0,-3.460719929,-1.6011237894,1.98
 51901308\H,0,-3.6241741227,-0.2658954252,0.8409454807\H,0,-1.149571048
 ,-1.4027199187,1.9069616895\H,0,0.7136776354,-0.0015761327,3.236305179
 4\\Version=ES64L-G16RevA.03\State=2-A\HF=-519.2489298\S2=0.750847\S2-1
 =0.\S2A=0.750001\RMSD=3.614e-10\Dipole=-0.1735283,0.1026156,-1.5670176
 \Quadrupole=3.2308169,-3.8958486,0.6650317,-3.189454,1.5879756,5.08767
 58\PG=C01 [X(C8H15N1O2)]\\@


 TO SEE A WORLD IN A GRAIN OF SAND
 AND A HEAVEN IN A WILD FLOWER
 HOLD INFINITY IN THE PALM OF YOUR HAND
 AND ETERNITY IN AN HOUR

                       -- WILLIAM BLAKE
 Job cpu time:       0 days  0 hours 30 minutes 43.3 seconds.
 Elapsed time:       0 days  0 hours  9 minutes 47.3 seconds.
 File lengths (MBytes):  RWF=    168 Int=      0 D2E=      0 Chk=     16 Scr=      8
 Normal termination of Gaussian 16 at Tue Dec  8 20:27:54 2020.
