 Entering Gaussian System, Link 0=g16
 Initial command:
 /apps/brussel/CO7/ivybridge-ib/software/Gaussian/G16.A.03-intel-2017b/g16/l1.exe "/scratch/brussel/102/vsc10255/3548596[5386].master01.hydra.brussel.vsc/Gau-58265.inp" -scrdir="/scratch/brussel/102/vsc10255/3548596[5386].master01.hydra.brussel.vsc/"
 Entering Link 1 = /apps/brussel/CO7/ivybridge-ib/software/Gaussian/G16.A.03-intel-2017b/g16/l1.exe.bin PID=     58268.
  
 Copyright (c) 1988,1990,1992,1993,1995,1998,2003,2009,2016,
            Gaussian, Inc.  All Rights Reserved.
  
 This is part of the Gaussian(R) 16 program.  It is based on
 the Gaussian(R) 09 system (copyright 2009, Gaussian, Inc.),
 the Gaussian(R) 03 system (copyright 2003, Gaussian, Inc.),
 the Gaussian(R) 98 system (copyright 1998, Gaussian, Inc.),
 the Gaussian(R) 94 system (copyright 1995, Gaussian, Inc.),
 the Gaussian 92(TM) system (copyright 1992, Gaussian, Inc.),
 the Gaussian 90(TM) system (copyright 1990, Gaussian, Inc.),
 the Gaussian 88(TM) system (copyright 1988, Gaussian, Inc.),
 the Gaussian 86(TM) system (copyright 1986, Carnegie Mellon
 University), and the Gaussian 82(TM) system (copyright 1983,
 Carnegie Mellon University). Gaussian is a federally registered
 trademark of Gaussian, Inc.
  
 This software contains proprietary and confidential information,
 including trade secrets, belonging to Gaussian, Inc.
  
 This software is provided under written license and may be
 used, copied, transmitted, or stored only in accord with that
 written license.
  
 The following legend is applicable only to US Government
 contracts under FAR:
  
                    RESTRICTED RIGHTS LEGEND
  
 Use, reproduction and disclosure by the US Government is
 subject to restrictions as set forth in subparagraphs (a)
 and (c) of the Commercial Computer Software - Restricted
 Rights clause in FAR 52.227-19.
  
 Gaussian, Inc.
 340 Quinnipiac St., Bldg. 40, Wallingford CT 06492
  
  
 ---------------------------------------------------------------
 Warning -- This program may not be used in any manner that
 competes with the business of Gaussian, Inc. or will provide
 assistance to any competitor of Gaussian, Inc.  The licensee
 of this program is prohibited from giving any competitor of
 Gaussian, Inc. access to this program.  By using this program,
 the user acknowledges that Gaussian, Inc. is engaged in the
 business of creating and licensing software in the field of
 computational chemistry and represents and warrants to the
 licensee that it is not a competitor of Gaussian, Inc. and that
 it will not use this program in any manner prohibited above.
 ---------------------------------------------------------------
  

 Cite this work as:
 Gaussian 16, Revision A.03,
 M. J. Frisch, G. W. Trucks, H. B. Schlegel, G. E. Scuseria, 
 M. A. Robb, J. R. Cheeseman, G. Scalmani, V. Barone, 
 G. A. Petersson, H. Nakatsuji, X. Li, M. Caricato, A. V. Marenich, 
 J. Bloino, B. G. Janesko, R. Gomperts, B. Mennucci, H. P. Hratchian, 
 J. V. Ortiz, A. F. Izmaylov, J. L. Sonnenberg, D. Williams-Young, 
 F. Ding, F. Lipparini, F. Egidi, J. Goings, B. Peng, A. Petrone, 
 T. Henderson, D. Ranasinghe, V. G. Zakrzewski, J. Gao, N. Rega, 
 G. Zheng, W. Liang, M. Hada, M. Ehara, K. Toyota, R. Fukuda, 
 J. Hasegawa, M. Ishida, T. Nakajima, Y. Honda, O. Kitao, H. Nakai, 
 T. Vreven, K. Throssell, J. A. Montgomery, Jr., J. E. Peralta, 
 F. Ogliaro, M. J. Bearpark, J. J. Heyd, E. N. Brothers, K. N. Kudin, 
 V. N. Staroverov, T. A. Keith, R. Kobayashi, J. Normand, 
 K. Raghavachari, A. P. Rendell, J. C. Burant, S. S. Iyengar, 
 J. Tomasi, M. Cossi, J. M. Millam, M. Klene, C. Adamo, R. Cammi, 
 J. W. Ochterski, R. L. Martin, K. Morokuma, O. Farkas, 
 J. B. Foresman, and D. J. Fox, Gaussian, Inc., Wallingford CT, 2016.
 
 ******************************************
 Gaussian 16:  ES64L-G16RevA.03 25-Dec-2016
                10-Dec-2020 
 ******************************************
 %chk=JID_5386.chk
 %mem=8GB
 %nprocshared=4
 Will use up to    4 processors via shared memory.
 -----------------------------------------------------------
 # opt freq B3LYP/6-31G(d) empiricaldispersion=gd3bj scf=xqc
 -----------------------------------------------------------
 1/18=20,19=15,26=3,38=1/1,3;
 2/9=110,12=2,17=6,18=5,40=1/2;
 3/5=1,6=6,7=1,11=2,25=1,30=1,71=1,74=-5,124=41/1,2,3;
 4//1;
 5/5=2,8=3,13=1,38=5/2,8;
 6/7=2,8=2,9=2,10=2,28=1/1;
 7//1,2,3,16;
 1/18=20,19=15,26=3/3(2);
 2/9=110/2;
 99//99;
 2/9=110/2;
 3/5=1,6=6,7=1,11=2,25=1,30=1,71=1,74=-5,124=41/1,2,3;
 4/5=5,16=3,69=1/1;
 5/5=2,8=3,13=1,38=5/2,8;
 7//1,2,3,16;
 1/18=20,19=15,26=3/3(-5);
 2/9=110/2;
 6/7=2,8=2,9=2,10=2,19=2,28=1/1;
 99/9=1/99;
 -------------------------------
 CID_116504417_JID_5386_neutraal
 -------------------------------
 Symbolic Z-matrix:
 Charge =  0 Multiplicity = 1
 C                     0.99652   0.08613  -0.05069 
 C                     1.33801   0.00899  -1.52945 
 C                     2.05031  -1.28859  -1.93002 
 N                     1.16156  -2.36114  -2.37564 
 C                     0.50225  -2.22027  -3.59086 
 O                    -0.26607  -3.03564  -4.08325 
 C                     0.91521  -3.61489  -1.61561 
 C                     2.03422  -4.08209  -0.66529 
 C                     2.03479  -3.46149   0.73522 
 S                     1.12964  -4.47916   1.94909 
 C                     0.95996  -3.26064   3.29274 
 C                    -0.29301  -2.4224    3.11519 
 C                    -0.46411  -3.5926   -0.94747 
 O                    -1.06352  -2.61624  -0.52443 
 O                    -0.99698  -4.82623  -0.81618 
 H                     0.25323  -0.66096   0.22509 
 H                     0.57667   1.0695    0.1852 
 H                     1.88748  -0.0533    0.56927 
 H                     0.43043   0.16657  -2.12251 
 H                     2.00964   0.84777  -1.75099 
 H                     2.68116  -1.05373  -2.79797 
 H                     2.73317  -1.62898  -1.15025 
 H                     0.74109  -1.27202  -4.10134 
 H                     0.84336  -4.38997  -2.39281 
 H                     1.99158  -5.17651  -0.58222 
 H                     3.00003  -3.87258  -1.14337 
 H                     3.06779  -3.39344   1.09253 
 H                     1.62005  -2.45554   0.7235 
 H                     0.89774  -3.80891   4.23788 
 H                     1.85096  -2.62646   3.33901 
 H                    -0.27386  -1.85066   2.18386 
 H                    -1.19433  -3.0449    3.12021 
 H                    -0.38231  -1.70633   3.93886 
 H                    -1.85332  -4.66847  -0.36771 
 

 GradGradGradGradGradGradGradGradGradGradGradGradGradGradGradGradGradGrad
 Berny optimization.
 Initialization pass.
                           ----------------------------
                           !    Initial Parameters    !
                           ! (Angstroms and Degrees)  !
 --------------------------                            --------------------------
 ! Name  Definition              Value          Derivative Info.                !
 --------------------------------------------------------------------------------
 ! R1    R(1,2)                  1.5196         estimate D2E/DX2                !
 ! R2    R(1,16)                 1.0893         estimate D2E/DX2                !
 ! R3    R(1,17)                 1.095          estimate D2E/DX2                !
 ! R4    R(1,18)                 1.0943         estimate D2E/DX2                !
 ! R5    R(2,3)                  1.5335         estimate D2E/DX2                !
 ! R6    R(2,19)                 1.0956         estimate D2E/DX2                !
 ! R7    R(2,20)                 1.0971         estimate D2E/DX2                !
 ! R8    R(3,4)                  1.4625         estimate D2E/DX2                !
 ! R9    R(3,21)                 1.0984         estimate D2E/DX2                !
 ! R10   R(3,22)                 1.091          estimate D2E/DX2                !
 ! R11   R(4,5)                  1.3897         estimate D2E/DX2                !
 ! R12   R(4,7)                  1.4867         estimate D2E/DX2                !
 ! R13   R(5,6)                  1.2238         estimate D2E/DX2                !
 ! R14   R(5,23)                 1.1031         estimate D2E/DX2                !
 ! R15   R(7,8)                  1.5406         estimate D2E/DX2                !
 ! R16   R(7,13)                 1.5328         estimate D2E/DX2                !
 ! R17   R(7,24)                 1.1            estimate D2E/DX2                !
 ! R18   R(8,9)                  1.5319         estimate D2E/DX2                !
 ! R19   R(8,25)                 1.0984         estimate D2E/DX2                !
 ! R20   R(8,26)                 1.0978         estimate D2E/DX2                !
 ! R21   R(9,10)                 1.8244         estimate D2E/DX2                !
 ! R22   R(9,27)                 1.0952         estimate D2E/DX2                !
 ! R23   R(9,28)                 1.0882         estimate D2E/DX2                !
 ! R24   R(10,11)                1.8218         estimate D2E/DX2                !
 ! R25   R(11,12)                1.5179         estimate D2E/DX2                !
 ! R26   R(11,29)                1.0944         estimate D2E/DX2                !
 ! R27   R(11,30)                1.0946         estimate D2E/DX2                !
 ! R28   R(12,31)                1.093          estimate D2E/DX2                !
 ! R29   R(12,32)                1.0954         estimate D2E/DX2                !
 ! R30   R(12,33)                1.0951         estimate D2E/DX2                !
 ! R31   R(13,14)                1.2213         estimate D2E/DX2                !
 ! R32   R(13,15)                1.3502         estimate D2E/DX2                !
 ! R33   R(15,34)                0.9795         estimate D2E/DX2                !
 ! A1    A(2,1,16)             111.3995         estimate D2E/DX2                !
 ! A2    A(2,1,17)             109.9617         estimate D2E/DX2                !
 ! A3    A(2,1,18)             111.2139         estimate D2E/DX2                !
 ! A4    A(16,1,17)            107.4427         estimate D2E/DX2                !
 ! A5    A(16,1,18)            108.9484         estimate D2E/DX2                !
 ! A6    A(17,1,18)            107.7314         estimate D2E/DX2                !
 ! A7    A(1,2,3)              113.6736         estimate D2E/DX2                !
 ! A8    A(1,2,19)             109.4696         estimate D2E/DX2                !
 ! A9    A(1,2,20)             107.1725         estimate D2E/DX2                !
 ! A10   A(3,2,19)             111.414          estimate D2E/DX2                !
 ! A11   A(3,2,20)             108.0479         estimate D2E/DX2                !
 ! A12   A(19,2,20)            106.7295         estimate D2E/DX2                !
 ! A13   A(2,3,4)              114.7009         estimate D2E/DX2                !
 ! A14   A(2,3,21)             106.9936         estimate D2E/DX2                !
 ! A15   A(2,3,22)             111.5953         estimate D2E/DX2                !
 ! A16   A(4,3,21)             105.3708         estimate D2E/DX2                !
 ! A17   A(4,3,22)             111.6751         estimate D2E/DX2                !
 ! A18   A(21,3,22)            105.7845         estimate D2E/DX2                !
 ! A19   A(3,4,5)              118.7125         estimate D2E/DX2                !
 ! A20   A(3,4,7)              124.2915         estimate D2E/DX2                !
 ! A21   A(5,4,7)              116.9947         estimate D2E/DX2                !
 ! A22   A(4,5,6)              125.6025         estimate D2E/DX2                !
 ! A23   A(4,5,23)             112.8975         estimate D2E/DX2                !
 ! A24   A(6,5,23)             121.4996         estimate D2E/DX2                !
 ! A25   A(4,7,8)              116.7901         estimate D2E/DX2                !
 ! A26   A(4,7,13)             111.0813         estimate D2E/DX2                !
 ! A27   A(4,7,24)             104.1135         estimate D2E/DX2                !
 ! A28   A(8,7,13)             112.9009         estimate D2E/DX2                !
 ! A29   A(8,7,24)             105.6401         estimate D2E/DX2                !
 ! A30   A(13,7,24)            105.0378         estimate D2E/DX2                !
 ! A31   A(7,8,9)              116.1908         estimate D2E/DX2                !
 ! A32   A(7,8,25)             108.6996         estimate D2E/DX2                !
 ! A33   A(7,8,26)             108.2095         estimate D2E/DX2                !
 ! A34   A(9,8,25)             109.5442         estimate D2E/DX2                !
 ! A35   A(9,8,26)             108.6928         estimate D2E/DX2                !
 ! A36   A(25,8,26)            104.906          estimate D2E/DX2                !
 ! A37   A(8,9,10)             112.466          estimate D2E/DX2                !
 ! A38   A(8,9,27)             108.8936         estimate D2E/DX2                !
 ! A39   A(8,9,28)             111.379          estimate D2E/DX2                !
 ! A40   A(10,9,27)            106.592          estimate D2E/DX2                !
 ! A41   A(10,9,28)            109.4959         estimate D2E/DX2                !
 ! A42   A(27,9,28)            107.7929         estimate D2E/DX2                !
 ! A43   A(9,10,11)             99.4298         estimate D2E/DX2                !
 ! A44   A(10,11,12)           111.0984         estimate D2E/DX2                !
 ! A45   A(10,11,29)           107.888          estimate D2E/DX2                !
 ! A46   A(10,11,30)           110.0517         estimate D2E/DX2                !
 ! A47   A(12,11,29)           109.3133         estimate D2E/DX2                !
 ! A48   A(12,11,30)           110.9101         estimate D2E/DX2                !
 ! A49   A(29,11,30)           107.4583         estimate D2E/DX2                !
 ! A50   A(11,12,31)           111.9671         estimate D2E/DX2                !
 ! A51   A(11,12,32)           111.3976         estimate D2E/DX2                !
 ! A52   A(11,12,33)           109.9036         estimate D2E/DX2                !
 ! A53   A(31,12,32)           108.3964         estimate D2E/DX2                !
 ! A54   A(31,12,33)           107.4749         estimate D2E/DX2                !
 ! A55   A(32,12,33)           107.5212         estimate D2E/DX2                !
 ! A56   A(7,13,14)            127.177          estimate D2E/DX2                !
 ! A57   A(7,13,15)            112.5969         estimate D2E/DX2                !
 ! A58   A(14,13,15)           120.2021         estimate D2E/DX2                !
 ! A59   A(13,15,34)           104.029          estimate D2E/DX2                !
 ! D1    D(16,1,2,3)           -66.2263         estimate D2E/DX2                !
 ! D2    D(16,1,2,19)           59.0712         estimate D2E/DX2                !
 ! D3    D(16,1,2,20)          174.463          estimate D2E/DX2                !
 ! D4    D(17,1,2,3)           174.7701         estimate D2E/DX2                !
 ! D5    D(17,1,2,19)          -59.9324         estimate D2E/DX2                !
 ! D6    D(17,1,2,20)           55.4594         estimate D2E/DX2                !
 ! D7    D(18,1,2,3)            55.5243         estimate D2E/DX2                !
 ! D8    D(18,1,2,19)         -179.1783         estimate D2E/DX2                !
 ! D9    D(18,1,2,20)          -63.7865         estimate D2E/DX2                !
 ! D10   D(1,2,3,4)             92.0238         estimate D2E/DX2                !
 ! D11   D(1,2,3,21)          -151.5112         estimate D2E/DX2                !
 ! D12   D(1,2,3,22)           -36.2414         estimate D2E/DX2                !
 ! D13   D(19,2,3,4)           -32.2299         estimate D2E/DX2                !
 ! D14   D(19,2,3,21)           84.2351         estimate D2E/DX2                !
 ! D15   D(19,2,3,22)         -160.4951         estimate D2E/DX2                !
 ! D16   D(20,2,3,4)          -149.1655         estimate D2E/DX2                !
 ! D17   D(20,2,3,21)          -32.7005         estimate D2E/DX2                !
 ! D18   D(20,2,3,22)           82.5693         estimate D2E/DX2                !
 ! D19   D(2,3,4,5)             69.5432         estimate D2E/DX2                !
 ! D20   D(2,3,4,7)           -110.8905         estimate D2E/DX2                !
 ! D21   D(21,3,4,5)           -47.8489         estimate D2E/DX2                !
 ! D22   D(21,3,4,7)           131.7174         estimate D2E/DX2                !
 ! D23   D(22,3,4,5)          -162.2318         estimate D2E/DX2                !
 ! D24   D(22,3,4,7)            17.3345         estimate D2E/DX2                !
 ! D25   D(3,4,5,6)            179.9595         estimate D2E/DX2                !
 ! D26   D(3,4,5,23)             0.1787         estimate D2E/DX2                !
 ! D27   D(7,4,5,6)              0.3616         estimate D2E/DX2                !
 ! D28   D(7,4,5,23)          -179.4192         estimate D2E/DX2                !
 ! D29   D(3,4,7,8)            -26.3481         estimate D2E/DX2                !
 ! D30   D(3,4,7,13)           105.0926         estimate D2E/DX2                !
 ! D31   D(3,4,7,24)          -142.3476         estimate D2E/DX2                !
 ! D32   D(5,4,7,8)            153.2251         estimate D2E/DX2                !
 ! D33   D(5,4,7,13)           -75.3343         estimate D2E/DX2                !
 ! D34   D(5,4,7,24)            37.2255         estimate D2E/DX2                !
 ! D35   D(4,7,8,9)             84.7527         estimate D2E/DX2                !
 ! D36   D(4,7,8,25)          -151.1866         estimate D2E/DX2                !
 ! D37   D(4,7,8,26)           -37.7813         estimate D2E/DX2                !
 ! D38   D(13,7,8,9)           -45.843          estimate D2E/DX2                !
 ! D39   D(13,7,8,25)           78.2176         estimate D2E/DX2                !
 ! D40   D(13,7,8,26)         -168.3771         estimate D2E/DX2                !
 ! D41   D(24,7,8,9)          -160.0951         estimate D2E/DX2                !
 ! D42   D(24,7,8,25)          -36.0344         estimate D2E/DX2                !
 ! D43   D(24,7,8,26)           77.3709         estimate D2E/DX2                !
 ! D44   D(4,7,13,14)          -31.6106         estimate D2E/DX2                !
 ! D45   D(4,7,13,15)          150.1845         estimate D2E/DX2                !
 ! D46   D(8,7,13,14)          101.8009         estimate D2E/DX2                !
 ! D47   D(8,7,13,15)          -76.404          estimate D2E/DX2                !
 ! D48   D(24,7,13,14)        -143.5834         estimate D2E/DX2                !
 ! D49   D(24,7,13,15)          38.2117         estimate D2E/DX2                !
 ! D50   D(7,8,9,10)            93.4951         estimate D2E/DX2                !
 ! D51   D(7,8,9,27)          -148.5919         estimate D2E/DX2                !
 ! D52   D(7,8,9,28)           -29.8524         estimate D2E/DX2                !
 ! D53   D(25,8,9,10)          -30.1288         estimate D2E/DX2                !
 ! D54   D(25,8,9,27)           87.7842         estimate D2E/DX2                !
 ! D55   D(25,8,9,28)         -153.4764         estimate D2E/DX2                !
 ! D56   D(26,8,9,10)         -144.2249         estimate D2E/DX2                !
 ! D57   D(26,8,9,27)          -26.3119         estimate D2E/DX2                !
 ! D58   D(26,8,9,28)           92.4275         estimate D2E/DX2                !
 ! D59   D(8,9,10,11)         -165.5119         estimate D2E/DX2                !
 ! D60   D(27,9,10,11)          75.2237         estimate D2E/DX2                !
 ! D61   D(28,9,10,11)         -41.1188         estimate D2E/DX2                !
 ! D62   D(9,10,11,12)          87.8015         estimate D2E/DX2                !
 ! D63   D(9,10,11,29)        -152.3944         estimate D2E/DX2                !
 ! D64   D(9,10,11,30)         -35.4325         estimate D2E/DX2                !
 ! D65   D(10,11,12,31)        -61.3483         estimate D2E/DX2                !
 ! D66   D(10,11,12,32)         60.2218         estimate D2E/DX2                !
 ! D67   D(10,11,12,33)        179.2842         estimate D2E/DX2                !
 ! D68   D(29,11,12,31)        179.6996         estimate D2E/DX2                !
 ! D69   D(29,11,12,32)        -58.7302         estimate D2E/DX2                !
 ! D70   D(29,11,12,33)         60.3322         estimate D2E/DX2                !
 ! D71   D(30,11,12,31)         61.3917         estimate D2E/DX2                !
 ! D72   D(30,11,12,32)       -177.0382         estimate D2E/DX2                !
 ! D73   D(30,11,12,33)        -57.9757         estimate D2E/DX2                !
 ! D74   D(7,13,15,34)         178.9744         estimate D2E/DX2                !
 ! D75   D(14,13,15,34)          0.6293         estimate D2E/DX2                !
 --------------------------------------------------------------------------------
 Trust Radius=3.00D-01 FncErr=1.00D-07 GrdErr=1.00D-06 EigMax=2.50D+02 EigMin=1.00D-04
 Number of steps in this run=    177 maximum allowed number of steps=    204.
 GradGradGradGradGradGradGradGradGradGradGradGradGradGradGradGradGradGrad

                          Input orientation:                          
 ---------------------------------------------------------------------
 Center     Atomic      Atomic             Coordinates (Angstroms)
 Number     Number       Type             X           Y           Z
 ---------------------------------------------------------------------
      1          6           0        0.996520    0.086130   -0.050690
      2          6           0        1.338010    0.008990   -1.529450
      3          6           0        2.050310   -1.288590   -1.930020
      4          7           0        1.161560   -2.361140   -2.375640
      5          6           0        0.502250   -2.220270   -3.590860
      6          8           0       -0.266070   -3.035640   -4.083250
      7          6           0        0.915210   -3.614890   -1.615610
      8          6           0        2.034220   -4.082090   -0.665290
      9          6           0        2.034790   -3.461490    0.735220
     10         16           0        1.129640   -4.479160    1.949090
     11          6           0        0.959960   -3.260640    3.292740
     12          6           0       -0.293010   -2.422400    3.115190
     13          6           0       -0.464110   -3.592600   -0.947470
     14          8           0       -1.063520   -2.616240   -0.524430
     15          8           0       -0.996980   -4.826230   -0.816180
     16          1           0        0.253230   -0.660960    0.225090
     17          1           0        0.576670    1.069500    0.185200
     18          1           0        1.887480   -0.053300    0.569270
     19          1           0        0.430430    0.166570   -2.122510
     20          1           0        2.009640    0.847770   -1.750990
     21          1           0        2.681160   -1.053730   -2.797970
     22          1           0        2.733170   -1.628980   -1.150250
     23          1           0        0.741090   -1.272020   -4.101340
     24          1           0        0.843360   -4.389970   -2.392810
     25          1           0        1.991580   -5.176510   -0.582220
     26          1           0        3.000030   -3.872580   -1.143370
     27          1           0        3.067790   -3.393440    1.092530
     28          1           0        1.620050   -2.455540    0.723500
     29          1           0        0.897740   -3.808910    4.237880
     30          1           0        1.850960   -2.626460    3.339010
     31          1           0       -0.273860   -1.850660    2.183860
     32          1           0       -1.194330   -3.044900    3.120210
     33          1           0       -0.382310   -1.706330    3.938860
     34          1           0       -1.853320   -4.668470   -0.367710
 ---------------------------------------------------------------------
                    Distance matrix (angstroms):
                    1          2          3          4          5
     1  C    0.000000
     2  C    1.519637   0.000000
     3  C    2.555819   1.533474   0.000000
     4  N    3.379610   2.522833   1.462470   0.000000
     5  C    4.254008   3.149207   2.454161   1.389710   0.000000
     6  O    5.253677   4.285410   3.613060   2.325728   1.223761
     7  C    4.019096   3.649478   2.607485   1.486682   2.452981
     8  C    4.339195   4.238917   3.066503   2.578469   3.791077
     9  C    3.779056   4.202198   3.438785   3.413320   4.754395
    10  S    4.985851   5.682178   5.106355   4.815633   6.015584
    11  C    4.730828   5.838400   5.688151   5.742846   6.976806
    12  C    4.240095   5.490407   5.677219   5.680558   6.756064
    13  C    4.058412   4.069126   3.549109   2.489772   3.131238
    14  O    3.430889   3.697194   3.665280   2.905690   3.465750
    15  O    5.356426   5.416667   4.800158   3.628757   4.091157
    16  H    1.089348   2.168869   2.875398   3.237201   4.129762
    17  H    1.094959   2.155074   3.493760   4.320797   5.008668
    18  H    1.094350   2.170351   2.792652   3.811244   4.890941
    19  H    2.149271   1.095561   2.185990   2.643472   2.803251
    20  H    2.120738   1.097141   2.144234   3.377356   3.882038
    21  H    3.418310   2.131330   1.098393   2.048626   2.595600
    22  H    2.677048   2.184768   1.090965   2.123110   3.359048
    23  H    4.279904   2.934607   2.535540   2.083511   1.103092
    24  H    5.054152   4.510091   3.359979   2.053703   2.501855
    25  H    5.382197   5.311667   4.115329   3.439709   4.473184
    26  H    4.569397   4.240042   2.863178   2.680096   3.867718
    27  H    4.207674   4.630707   3.821187   4.089934   5.467400
    28  H    2.729148   3.351006   2.930540   3.134293   4.463018
    29  H    5.794215   6.930533   6.761910   6.775270   7.998085
    30  H    4.424735   5.559732   5.439882   5.762195   7.071570
    31  H    3.218421   4.454783   4.758329   4.807292   5.838352
    32  H    4.965660   6.112146   6.254369   6.018481   6.971145
    33  H    4.585913   5.983664   6.366781   6.533393   7.598899
    34  H    5.552325   5.780386   5.394694   4.294771   4.683064
                    6          7          8          9         10
     6  O    0.000000
     7  C    2.796462   0.000000
     8  C    4.250746   1.540639   0.000000
     9  C    5.356581   2.608331   1.531853   0.000000
    10  S    6.357742   3.674239   2.794801   1.824398   0.000000
    11  C    7.480575   4.921320   4.182680   2.781458   1.821806
    12  C    7.224564   5.026161   4.739472   3.487495   2.759345
    13  C    3.191009   1.532786   2.561421   3.015483   3.422877
    14  O    3.671106   2.470496   3.429949   3.449738   3.794565
    15  O    3.796602   2.400605   3.124850   3.668922   3.505665
    16  H    4.946774   3.542894   3.958388   3.358148   4.280061
    17  H    5.981810   5.030013   5.420947   4.791504   5.848479
    18  H    5.931111   4.289981   4.216257   3.415406   4.697495
    19  H    3.818869   3.845959   4.769355   4.889111   6.216883
    20  H    5.069434   4.596895   5.048056   4.975097   6.545317
    21  H    3.777046   3.328077   3.760029   4.324180   6.056019
    22  H    4.424548   2.732284   2.596433   2.720446   4.505635
    23  H    2.031023   3.420265   4.623323   5.464408   6.858894
    24  H    2.433646   1.099978   2.120675   3.473637   4.352242
    25  H    4.683751   2.159890   1.098396   2.163055   2.763470
    26  H    4.473340   2.153112   1.097836   2.151693   3.664643
    27  H    6.166956   3.466506   2.152310   1.095167   2.380947
    28  H    5.196038   2.704132   2.178518   1.088155   2.416115
    29  H    8.437630   5.856731   5.040564   3.698947   2.396158
    30  H    7.729113   5.138179   4.264606   2.740582   2.425835
    31  H    6.378159   4.354580   4.292338   3.165943   2.988970
    32  H    7.263029   5.215653   5.082254   4.035956   2.971441
    33  H    8.132332   6.014840   5.716822   4.380213   3.732796
    34  H    4.357836   3.214350   3.942761   4.217897   3.781726
                   11         12         13         14         15
    11  C    0.000000
    12  C    1.517928   0.000000
    13  C    4.485260   4.231294   0.000000
    14  O    4.368124   3.725331   1.221284   0.000000
    15  O    4.812890   4.661506   1.350196   2.230157   0.000000
    16  H    4.082680   3.428371   3.237899   2.473607   4.471772
    17  H    5.343578   4.640533   4.909312   4.096154   6.183750
    18  H    4.308667   4.104739   4.511887   4.058724   5.746342
    19  H    6.430482   5.887243   4.038846   3.539743   5.354629
    20  H    6.589391   6.298882   5.146063   4.790420   6.489061
    21  H    6.702964   6.759024   4.445552   4.651134   5.629206
    22  H    5.054379   5.289731   3.757595   3.972554   4.924229
    23  H    7.659956   7.380450   4.096888   4.225853   5.142526
    24  H    5.797798   5.958249   2.105774   3.205176   2.462303
    25  H    4.444110   5.145417   2.944926   3.986472   3.018099
    26  H    4.920917   5.575165   3.480953   4.298129   4.122207
    27  H    3.049837   4.040922   4.083575   4.504034   4.713642
    28  H    2.772165   3.062855   2.903234   2.963900   3.852224
    29  H    1.094423   2.144931   5.365564   5.286643   5.492579
    30  H    1.094626   2.165258   4.966577   4.839470   5.496849
    31  H    2.177147   1.092991   3.588283   2.923099   4.286859
    32  H    2.171929   1.095404   4.168839   3.672092   4.325188
    33  H    2.152914   1.095063   5.238409   4.605751   5.720315
    34  H    4.826533   4.428317   1.850276   2.204539   0.979455
                   16         17         18         19         20
    16  H    0.000000
    17  H    1.760879   0.000000
    18  H    1.777212   1.768166   0.000000
    19  H    2.495482   2.482377   3.068716   0.000000
    20  H    3.044033   2.418967   2.492079   1.759535   0.000000
    21  H    3.897179   4.223303   3.601263   2.647860   2.272181
    22  H    2.996452   3.703473   2.480868   3.077645   2.649278
    23  H    4.396521   4.887144   4.961259   2.466134   3.409820
    24  H    4.594254   6.043432   5.354513   4.583190   5.404263
    25  H    4.905487   6.450081   5.252052   5.775655   6.136636
    26  H    4.442082   5.662325   4.331028   4.886337   4.861253
    27  H    4.017542   5.191027   3.580987   5.474105   5.214705
    28  H    2.310222   3.715416   2.421996   4.048510   4.145689
    29  H    5.140765   6.350290   5.342555   7.515143   7.667304
    30  H    4.014029   5.022992   3.780733   6.296596   6.164702
    31  H    2.351593   3.639420   3.241727   4.807293   5.289512
    32  H    4.019990   5.355279   4.995450   6.359206   7.010485
    33  H    3.910089   4.766009   4.386182   6.395976   6.679764
    34  H    4.566082   6.255786   6.014259   5.627828   6.874942
                   21         22         23         24         25
    21  H    0.000000
    22  H    1.746024   0.000000
    23  H    2.347402   3.578370   0.000000
    24  H    3.830426   3.569090   3.556845   0.000000
    25  H    4.731002   3.668458   5.403052   2.283701   0.000000
    26  H    3.284097   2.259425   4.540408   2.545588   1.741291
    27  H    4.556283   2.873213   6.073734   4.253088   2.672518
    28  H    3.935959   2.330918   5.045034   3.749221   3.040825
    29  H    7.763684   6.095313   8.717967   6.656323   5.128370
    30  H    6.389463   4.682597   7.643633   6.081035   4.679591
    31  H    5.846868   4.495293   6.392862   5.351839   4.883103
    32  H    7.349084   5.972178   7.683732   6.029493   5.329331
    33  H    7.429375   5.967515   8.129912   6.985287   6.173951
    34  H    6.287608   5.557586   5.675106   3.383885   3.884247
                   26         27         28         29         30
    26  H    0.000000
    27  H    2.287666   0.000000
    28  H    2.719844   1.764027   0.000000
    29  H    5.777675   3.843821   3.834607   0.000000
    30  H    4.792171   2.667509   2.631240   1.764875   0.000000
    31  H    5.086942   3.838984   2.466866   3.070242   2.539901
    32  H    6.037866   4.732719   3.743301   2.491918   3.081681
    33  H    6.477802   4.780285   3.861256   2.479674   2.488766
    34  H    4.978965   5.289171   4.260528   5.433105   5.624168
                   31         32         33         34
    31  H    0.000000
    32  H    1.774887   0.000000
    33  H    1.764261   1.766730   0.000000
    34  H    4.116462   3.903311   5.429981   0.000000
 Stoichiometry    C10H19NO3S
 Framework group  C1[X(C10H19NO3S)]
 Deg. of freedom    96
 Full point group                 C1      NOp   1
 Largest Abelian subgroup         C1      NOp   1
 Largest concise Abelian subgroup C1      NOp   1
                         Standard orientation:                         
 ---------------------------------------------------------------------
 Center     Atomic      Atomic             Coordinates (Angstroms)
 Number     Number       Type             X           Y           Z
 ---------------------------------------------------------------------
      1          6           0        0.524762    2.818399   -0.612254
      2          6           0        1.919706    2.460092   -0.127440
      3          6           0        1.933832    1.390796    0.971627
      4          7           0        2.063826    0.017317    0.486372
      5          6           0        3.273173   -0.382835   -0.069192
      6          8           0        3.519906   -1.496710   -0.511910
      7          6           0        0.982371   -1.000612    0.553457
      8          6           0       -0.067540   -0.825942    1.667344
      9          6           0       -1.236044    0.113646    1.353742
     10         16           0       -2.682519   -0.772663    0.682479
     11          6           0       -3.626808    0.644405    0.035011
     12          6           0       -3.212811    0.972556   -1.388024
     13          6           0        0.355565   -1.230834   -0.826233
     14          8           0        0.228609   -0.413549   -1.724820
     15          8           0       -0.115387   -2.486973   -0.979045
     16          1           0        0.053664    1.979290   -1.122784
     17          1           0        0.578300    3.648007   -1.324869
     18          1           0       -0.114437    3.133230    0.218353
     19          1           0        2.538313    2.163825   -0.981725
     20          1           0        2.365046    3.375044    0.282748
     21          1           0        2.829160    1.569825    1.582205
     22          1           0        1.085812    1.500195    1.649194
     23          1           0        4.029072    0.420522   -0.075991
     24          1           0        1.509721   -1.937204    0.787226
     25          1           0       -0.455761   -1.815588    1.943678
     26          1           0        0.444694   -0.462074    2.567599
     27          1           0       -1.565543    0.591927    2.282218
     28          1           0       -0.938617    0.899464    0.662287
     29          1           0       -4.687864    0.376685    0.050686
     30          1           0       -3.497372    1.512210    0.689509
     31          1           0       -2.158135    1.251987   -1.452879
     32          1           0       -3.388098    0.125869   -2.060559
     33          1           0       -3.800469    1.817618   -1.761779
     34          1           0       -0.496222   -2.489624   -1.881425
 ---------------------------------------------------------------------
 Rotational constants (GHZ):           0.7170889           0.3705100           0.3145566
 Standard basis: 6-31G(d) (6D, 7F)
 There are   267 symmetry adapted cartesian basis functions of A   symmetry.
 There are   267 symmetry adapted basis functions of A   symmetry.
   267 basis functions,   520 primitive gaussians,   267 cartesian basis functions
    63 alpha electrons       63 beta electrons
       nuclear repulsion energy      1231.8599457725 Hartrees.
 NAtoms=   34 NActive=   34 NUniq=   34 SFac= 1.00D+00 NAtFMM=   60 NAOKFM=F Big=F
 Integral buffers will be    131072 words long.
 Raffenetti 2 integral format.
 Two-electron integral symmetry is turned on.
 Nuclear repulsion after empirical dispersion term =     1231.7934787229 Hartrees.
 One-electron integrals computed using PRISM.
 NBasis=   267 RedAO= T EigKep=  2.52D-03  NBF=   267
 NBsUse=   267 1.00D-06 EigRej= -1.00D+00 NBFU=   267
 ExpMin= 1.17D-01 ExpMax= 2.19D+04 ExpMxC= 3.30D+03 IAcc=3 IRadAn=         5 AccDes= 0.00D+00
 Harris functional with IExCor=  402 and IRadAn=       5 diagonalized for initial guess.
 HarFok:  IExCor=  402 AccDes= 0.00D+00 IRadAn=         5 IDoV= 1 UseB2=F ITyADJ=14
 ICtDFT=  3500011 ScaDFX=  1.000000  1.000000  1.000000  1.000000
 FoFCou: FMM=F IPFlag=           0 FMFlag=      100000 FMFlg1=           0
         NFxFlg=           0 DoJE=T BraDBF=F KetDBF=T FulRan=T
         wScrn=  0.000000 ICntrl=       500 IOpCl=  0 I1Cent=   200000004 NGrid=           0
         NMat0=    1 NMatS0=      1 NMatT0=    0 NMatD0=    1 NMtDS0=    0 NMtDT0=    0
 Petite list used in FoFCou.
 Requested convergence on RMS density matrix=1.00D-08 within  32 cycles.
 Requested convergence on MAX density matrix=1.00D-06.
 Requested convergence on             energy=1.00D-06.
 No special actions if energy rises.
 Integral accuracy reduced to 1.0D-05 until final iterations.
 Initial convergence to 1.0D-05 achieved.  Increase integral accuracy.
 SCF Done:  E(RB3LYP) =  -1071.19010428     A.U. after   15 cycles
            NFock= 15  Conv=0.59D-08     -V/T= 2.0072
 QCSCF skips out because SCF is already converged.

 **********************************************************************

            Population analysis using the SCF density.

 **********************************************************************

 Orbital symmetries:
       Occupied  (A) (A) (A) (A) (A) (A) (A) (A) (A) (A) (A) (A)
                 (A) (A) (A) (A) (A) (A) (A) (A) (A) (A) (A) (A)
                 (A) (A) (A) (A) (A) (A) (A) (A) (A) (A) (A) (A)
                 (A) (A) (A) (A) (A) (A) (A) (A) (A) (A) (A) (A)
                 (A) (A) (A) (A) (A) (A) (A) (A) (A) (A) (A) (A)
                 (A) (A) (A)
       Virtual   (A) (A) (A) (A) (A) (A) (A) (A) (A) (A) (A) (A)
                 (A) (A) (A) (A) (A) (A) (A) (A) (A) (A) (A) (A)
                 (A) (A) (A) (A) (A) (A) (A) (A) (A) (A) (A) (A)
                 (A) (A) (A) (A) (A) (A) (A) (A) (A) (A) (A) (A)
                 (A) (A) (A) (A) (A) (A) (A) (A) (A) (A) (A) (A)
                 (A) (A) (A) (A) (A) (A) (A) (A) (A) (A) (A) (A)
                 (A) (A) (A) (A) (A) (A) (A) (A) (A) (A) (A) (A)
                 (A) (A) (A) (A) (A) (A) (A) (A) (A) (A) (A) (A)
                 (A) (A) (A) (A) (A) (A) (A) (A) (A) (A) (A) (A)
                 (A) (A) (A) (A) (A) (A) (A) (A) (A) (A) (A) (A)
                 (A) (A) (A) (A) (A) (A) (A) (A) (A) (A) (A) (A)
                 (A) (A) (A) (A) (A) (A) (A) (A) (A) (A) (A) (A)
                 (A) (A) (A) (A) (A) (A) (A) (A) (A) (A) (A) (A)
                 (A) (A) (A) (A) (A) (A) (A) (A) (A) (A) (A) (A)
                 (A) (A) (A) (A) (A) (A) (A) (A) (A) (A) (A) (A)
                 (A) (A) (A) (A) (A) (A) (A) (A) (A) (A) (A) (A)
                 (A) (A) (A) (A) (A) (A) (A) (A) (A) (A) (A) (A)
 The electronic state is 1-A.
 Alpha  occ. eigenvalues --  -88.86742 -19.19599 -19.14154 -19.12247 -14.37302
 Alpha  occ. eigenvalues --  -10.32406 -10.28635 -10.25146 -10.23414 -10.22170
 Alpha  occ. eigenvalues --  -10.21828 -10.21585 -10.19121 -10.17792 -10.17469
 Alpha  occ. eigenvalues --   -7.92913  -5.89432  -5.89067  -5.88350  -1.10678
 Alpha  occ. eigenvalues --   -1.03286  -1.00951  -0.93968  -0.83159  -0.80177
 Alpha  occ. eigenvalues --   -0.78330  -0.74263  -0.69941  -0.67995  -0.63878
 Alpha  occ. eigenvalues --   -0.62852  -0.60420  -0.58441  -0.54715  -0.52634
 Alpha  occ. eigenvalues --   -0.49940  -0.49411  -0.47761  -0.47447  -0.46342
 Alpha  occ. eigenvalues --   -0.45640  -0.45093  -0.43292  -0.42841  -0.41650
 Alpha  occ. eigenvalues --   -0.41483  -0.40700  -0.40329  -0.39078  -0.38464
 Alpha  occ. eigenvalues --   -0.37523  -0.36898  -0.36083  -0.35505  -0.35243
 Alpha  occ. eigenvalues --   -0.34261  -0.33660  -0.31569  -0.30617  -0.27781
 Alpha  occ. eigenvalues --   -0.25795  -0.24502  -0.21969
 Alpha virt. eigenvalues --   -0.00005   0.01279   0.02977   0.07470   0.07913
 Alpha virt. eigenvalues --    0.08451   0.09020   0.09391   0.10869   0.11899
 Alpha virt. eigenvalues --    0.12158   0.13343   0.13452   0.14126   0.15144
 Alpha virt. eigenvalues --    0.15836   0.16175   0.17069   0.17413   0.17872
 Alpha virt. eigenvalues --    0.19345   0.19564   0.20109   0.21012   0.21708
 Alpha virt. eigenvalues --    0.22941   0.24248   0.24814   0.26374   0.28057
 Alpha virt. eigenvalues --    0.28916   0.30541   0.33306   0.35962   0.37024
 Alpha virt. eigenvalues --    0.38752   0.39924   0.42297   0.42873   0.46978
 Alpha virt. eigenvalues --    0.48504   0.49835   0.51370   0.51838   0.52812
 Alpha virt. eigenvalues --    0.53217   0.56120   0.56593   0.57539   0.58463
 Alpha virt. eigenvalues --    0.60639   0.61003   0.61576   0.63260   0.63696
 Alpha virt. eigenvalues --    0.64634   0.67035   0.67514   0.68079   0.68312
 Alpha virt. eigenvalues --    0.69557   0.71256   0.71549   0.74351   0.75624
 Alpha virt. eigenvalues --    0.76939   0.79337   0.79691   0.80445   0.82656
 Alpha virt. eigenvalues --    0.83634   0.84413   0.84881   0.84949   0.85479
 Alpha virt. eigenvalues --    0.87808   0.88313   0.88693   0.89521   0.89782
 Alpha virt. eigenvalues --    0.90724   0.91088   0.92514   0.92842   0.93395
 Alpha virt. eigenvalues --    0.93834   0.94612   0.95471   0.95590   0.97296
 Alpha virt. eigenvalues --    0.98228   0.99085   0.99844   1.00917   1.02256
 Alpha virt. eigenvalues --    1.03733   1.03996   1.05385   1.06152   1.08785
 Alpha virt. eigenvalues --    1.09188   1.10386   1.15908   1.17694   1.18158
 Alpha virt. eigenvalues --    1.19871   1.24006   1.27690   1.29880   1.31729
 Alpha virt. eigenvalues --    1.36496   1.39215   1.39877   1.41243   1.43897
 Alpha virt. eigenvalues --    1.48944   1.51419   1.53235   1.53884   1.56538
 Alpha virt. eigenvalues --    1.58503   1.59605   1.61282   1.62250   1.65352
 Alpha virt. eigenvalues --    1.66959   1.69584   1.72766   1.73695   1.74147
 Alpha virt. eigenvalues --    1.76089   1.79418   1.81844   1.82523   1.83341
 Alpha virt. eigenvalues --    1.84056   1.86679   1.88954   1.89970   1.91092
 Alpha virt. eigenvalues --    1.93378   1.93785   1.95098   1.96082   1.98059
 Alpha virt. eigenvalues --    1.99620   2.00482   2.01235   2.03727   2.06168
 Alpha virt. eigenvalues --    2.07776   2.07940   2.11491   2.15730   2.17465
 Alpha virt. eigenvalues --    2.17844   2.22363   2.24568   2.27465   2.28191
 Alpha virt. eigenvalues --    2.29114   2.29594   2.30206   2.32704   2.33113
 Alpha virt. eigenvalues --    2.35915   2.37996   2.38920   2.40533   2.44155
 Alpha virt. eigenvalues --    2.45960   2.47364   2.50590   2.52409   2.58242
 Alpha virt. eigenvalues --    2.59604   2.60957   2.63500   2.65224   2.66241
 Alpha virt. eigenvalues --    2.70836   2.71221   2.79624   2.84649   2.89342
 Alpha virt. eigenvalues --    2.96829   3.00378   3.08753   3.10533   3.79288
 Alpha virt. eigenvalues --    3.92965   3.93871   4.02085   4.13624   4.19272
 Alpha virt. eigenvalues --    4.22015   4.23804   4.27234   4.37574   4.40119
 Alpha virt. eigenvalues --    4.45087   4.48213   4.54262   4.65709
          Condensed to atoms (all electrons):
               1          2          3          4          5          6
     1  C    5.121988   0.368454  -0.043443   0.001273   0.000147   0.000001
     2  C    0.368454   5.028799   0.360702  -0.056532  -0.005820   0.000048
     3  C   -0.043443   0.360702   4.944729   0.274964  -0.022762   0.001908
     4  N    0.001273  -0.056532   0.274964   7.068814   0.250632  -0.084779
     5  C    0.000147  -0.005820  -0.022762   0.250632   4.509136   0.559036
     6  O    0.000001   0.000048   0.001908  -0.084779   0.559036   8.020332
     7  C    0.000822   0.002576  -0.035673   0.270567  -0.025287   0.000405
     8  C    0.000124  -0.000265  -0.004224  -0.033765   0.004462   0.000591
     9  C   -0.002543  -0.000095  -0.000360  -0.003025  -0.000194  -0.000006
    10  S    0.000041   0.000015   0.000002   0.000292   0.000013  -0.000000
    11  C    0.000018  -0.000001   0.000002   0.000000  -0.000000  -0.000000
    12  C   -0.000896   0.000027  -0.000003   0.000001   0.000000  -0.000000
    13  C   -0.000254   0.000929   0.001446  -0.062253   0.001010   0.005441
    14  O   -0.007189   0.001305  -0.000405   0.001967   0.001854  -0.000554
    15  O   -0.000009   0.000004  -0.000057   0.001764  -0.000027  -0.000338
    16  H    0.367442  -0.032377  -0.003725   0.002791   0.000091  -0.000004
    17  H    0.368851  -0.029590   0.004947  -0.000148  -0.000006   0.000000
    18  H    0.373499  -0.036850  -0.007435  -0.000056   0.000004  -0.000000
    19  H   -0.034735   0.380686  -0.037341  -0.005081   0.003012  -0.000133
    20  H   -0.040153   0.359770  -0.035067   0.004569   0.000132  -0.000001
    21  H    0.005469  -0.051188   0.377395  -0.047586  -0.004700   0.000165
    22  H   -0.006666  -0.041449   0.374571  -0.029250   0.002396  -0.000082
    23  H    0.000074  -0.000871   0.004745  -0.117032   0.371001  -0.051704
    24  H   -0.000000  -0.000199   0.003085  -0.052831  -0.003197   0.016576
    25  H   -0.000001  -0.000008   0.000181   0.002981  -0.000050   0.000006
    26  H    0.000004   0.000171   0.000592  -0.003343   0.000093  -0.000013
    27  H   -0.000018   0.000016  -0.000357   0.000172   0.000006   0.000000
    28  H    0.005636  -0.001483   0.000447   0.000104  -0.000051   0.000001
    29  H   -0.000000   0.000000  -0.000000   0.000000   0.000000  -0.000000
    30  H    0.000009  -0.000001  -0.000003   0.000000   0.000000  -0.000000
    31  H    0.001261  -0.000017  -0.000003  -0.000008   0.000000   0.000000
    32  H    0.000011  -0.000000   0.000000  -0.000000  -0.000000   0.000000
    33  H    0.000019  -0.000000  -0.000000   0.000000  -0.000000   0.000000
    34  H    0.000003  -0.000001   0.000006  -0.000230  -0.000037  -0.000001
               7          8          9         10         11         12
     1  C    0.000822   0.000124  -0.002543   0.000041   0.000018  -0.000896
     2  C    0.002576  -0.000265  -0.000095   0.000015  -0.000001   0.000027
     3  C   -0.035673  -0.004224  -0.000360   0.000002   0.000002  -0.000003
     4  N    0.270567  -0.033765  -0.003025   0.000292   0.000000   0.000001
     5  C   -0.025287   0.004462  -0.000194   0.000013  -0.000000   0.000000
     6  O    0.000405   0.000591  -0.000006  -0.000000  -0.000000  -0.000000
     7  C    5.091930   0.345562  -0.035121  -0.006975   0.000055  -0.000003
     8  C    0.345562   5.091161   0.328052  -0.031941   0.002322  -0.000007
     9  C   -0.035121   0.328052   5.276294   0.250726  -0.011139  -0.003791
    10  S   -0.006975  -0.031941   0.250726  15.671579   0.253121  -0.069279
    11  C    0.000055   0.002322  -0.011139   0.253121   5.191763   0.355426
    12  C   -0.000003  -0.000007  -0.003791  -0.069279   0.355426   5.124228
    13  C    0.283811  -0.042283  -0.005094   0.009995  -0.000328   0.000133
    14  O   -0.068852  -0.003053   0.001906  -0.001689  -0.000134  -0.000363
    15  O   -0.081943   0.004512  -0.001615   0.000576   0.000030  -0.000017
    16  H   -0.000948   0.000063  -0.001958   0.000230  -0.000015  -0.000630
    17  H   -0.000001  -0.000002   0.000096  -0.000006   0.000000   0.000018
    18  H   -0.000009  -0.000046  -0.000656   0.000004  -0.000018   0.000033
    19  H   -0.000075   0.000010  -0.000023   0.000001  -0.000000   0.000000
    20  H   -0.000162   0.000021  -0.000018   0.000000   0.000000  -0.000000
    21  H    0.003376   0.000248   0.000071  -0.000003  -0.000000   0.000000
    22  H   -0.007657   0.003646  -0.000719   0.000150  -0.000007  -0.000001
    23  H    0.006479  -0.000048  -0.000002   0.000000   0.000000  -0.000000
    24  H    0.358973  -0.027883   0.004926  -0.000265   0.000001  -0.000000
    25  H   -0.027667   0.377086  -0.042380  -0.000647   0.000054   0.000006
    26  H   -0.034258   0.368234  -0.036923   0.003865  -0.000077  -0.000002
    27  H    0.003608  -0.032156   0.363990  -0.058060  -0.003760  -0.000362
    28  H   -0.003591  -0.038712   0.362198  -0.045427  -0.004374   0.004248
    29  H   -0.000001  -0.000056   0.002425  -0.035533   0.373013  -0.042687
    30  H   -0.000007   0.000164  -0.007130  -0.036469   0.363505  -0.043063
    31  H    0.000036  -0.000157   0.000934  -0.004383  -0.037026   0.381974
    32  H    0.000001   0.000009  -0.000193  -0.000278  -0.037904   0.385090
    33  H    0.000000   0.000001   0.000065   0.007460  -0.028689   0.351967
    34  H    0.009805  -0.000395  -0.000043   0.001194  -0.000020   0.000005
              13         14         15         16         17         18
     1  C   -0.000254  -0.007189  -0.000009   0.367442   0.368851   0.373499
     2  C    0.000929   0.001305   0.000004  -0.032377  -0.029590  -0.036850
     3  C    0.001446  -0.000405  -0.000057  -0.003725   0.004947  -0.007435
     4  N   -0.062253   0.001967   0.001764   0.002791  -0.000148  -0.000056
     5  C    0.001010   0.001854  -0.000027   0.000091  -0.000006   0.000004
     6  O    0.005441  -0.000554  -0.000338  -0.000004   0.000000  -0.000000
     7  C    0.283811  -0.068852  -0.081943  -0.000948  -0.000001  -0.000009
     8  C   -0.042283  -0.003053   0.004512   0.000063  -0.000002  -0.000046
     9  C   -0.005094   0.001906  -0.001615  -0.001958   0.000096  -0.000656
    10  S    0.009995  -0.001689   0.000576   0.000230  -0.000006   0.000004
    11  C   -0.000328  -0.000134   0.000030  -0.000015   0.000000  -0.000018
    12  C    0.000133  -0.000363  -0.000017  -0.000630   0.000018   0.000033
    13  C    4.436400   0.540651   0.256902  -0.000031   0.000002   0.000005
    14  O    0.540651   8.063747  -0.087784   0.017617   0.000083   0.000065
    15  O    0.256902  -0.087784   8.239085   0.000072   0.000000   0.000000
    16  H   -0.000031   0.017617   0.000072   0.500425  -0.025741  -0.033222
    17  H    0.000002   0.000083   0.000000  -0.025741   0.574269  -0.030097
    18  H    0.000005   0.000065   0.000000  -0.033222  -0.030097   0.594952
    19  H    0.000022   0.000408   0.000001  -0.004490  -0.002808   0.005159
    20  H   -0.000008   0.000013   0.000000   0.005420  -0.004978  -0.004395
    21  H   -0.000192   0.000002   0.000001   0.000038  -0.000219   0.000046
    22  H   -0.000190  -0.000042  -0.000002  -0.000107   0.000085   0.005303
    23  H   -0.000170  -0.000015  -0.000003  -0.000002   0.000001  -0.000000
    24  H   -0.043362   0.002478   0.005048   0.000030  -0.000000  -0.000001
    25  H   -0.002255  -0.000002   0.001388  -0.000004   0.000000   0.000000
    26  H    0.004399  -0.000078  -0.000048  -0.000013  -0.000000  -0.000005
    27  H    0.000308   0.000013  -0.000018   0.000041  -0.000001   0.000176
    28  H   -0.001793   0.001707   0.000031   0.002604  -0.000111   0.002155
    29  H    0.000003  -0.000001  -0.000000   0.000000   0.000000  -0.000000
    30  H    0.000003  -0.000004  -0.000001  -0.000003  -0.000000   0.000152
    31  H    0.000373   0.002270  -0.000062   0.004977  -0.000006  -0.000044
    32  H    0.000067   0.000036  -0.000006  -0.000012  -0.000000   0.000002
    33  H    0.000002   0.000021  -0.000000   0.000017  -0.000001   0.000002
    34  H   -0.007307   0.013045   0.217749  -0.000016  -0.000000  -0.000000
              19         20         21         22         23         24
     1  C   -0.034735  -0.040153   0.005469  -0.006666   0.000074  -0.000000
     2  C    0.380686   0.359770  -0.051188  -0.041449  -0.000871  -0.000199
     3  C   -0.037341  -0.035067   0.377395   0.374571   0.004745   0.003085
     4  N   -0.005081   0.004569  -0.047586  -0.029250  -0.117032  -0.052831
     5  C    0.003012   0.000132  -0.004700   0.002396   0.371001  -0.003197
     6  O   -0.000133  -0.000001   0.000165  -0.000082  -0.051704   0.016576
     7  C   -0.000075  -0.000162   0.003376  -0.007657   0.006479   0.358973
     8  C    0.000010   0.000021   0.000248   0.003646  -0.000048  -0.027883
     9  C   -0.000023  -0.000018   0.000071  -0.000719  -0.000002   0.004926
    10  S    0.000001   0.000000  -0.000003   0.000150   0.000000  -0.000265
    11  C   -0.000000   0.000000  -0.000000  -0.000007   0.000000   0.000001
    12  C    0.000000  -0.000000   0.000000  -0.000001  -0.000000  -0.000000
    13  C    0.000022  -0.000008  -0.000192  -0.000190  -0.000170  -0.043362
    14  O    0.000408   0.000013   0.000002  -0.000042  -0.000015   0.002478
    15  O    0.000001   0.000000   0.000001  -0.000002  -0.000003   0.005048
    16  H   -0.004490   0.005420   0.000038  -0.000107  -0.000002   0.000030
    17  H   -0.002808  -0.004978  -0.000219   0.000085   0.000001  -0.000000
    18  H    0.005159  -0.004395   0.000046   0.005303  -0.000000  -0.000001
    19  H    0.565449  -0.033645   0.000129   0.004366   0.001465  -0.000004
    20  H   -0.033645   0.616987  -0.004216   0.001705  -0.000035   0.000005
    21  H    0.000129  -0.004216   0.596245  -0.032618   0.004615  -0.000009
    22  H    0.004366   0.001705  -0.032618   0.566034  -0.000172   0.000136
    23  H    0.001465  -0.000035   0.004615  -0.000172   0.664865   0.000898
    24  H   -0.000004   0.000005  -0.000009   0.000136   0.000898   0.544708
    25  H    0.000000  -0.000000  -0.000000   0.000051   0.000004  -0.005218
    26  H   -0.000001  -0.000005  -0.000366   0.001611  -0.000025  -0.003082
    27  H    0.000000   0.000000  -0.000006   0.000822  -0.000000  -0.000134
    28  H    0.000000   0.000041   0.000098  -0.000109   0.000004   0.000250
    29  H    0.000000  -0.000000  -0.000000  -0.000000  -0.000000  -0.000000
    30  H    0.000000   0.000000   0.000000   0.000006  -0.000000  -0.000000
    31  H    0.000000   0.000001  -0.000000  -0.000001   0.000000  -0.000001
    32  H    0.000000   0.000000   0.000000   0.000000  -0.000000  -0.000000
    33  H    0.000000   0.000000  -0.000000   0.000000   0.000000   0.000000
    34  H   -0.000000  -0.000000  -0.000000   0.000000  -0.000001  -0.000691
              25         26         27         28         29         30
     1  C   -0.000001   0.000004  -0.000018   0.005636  -0.000000   0.000009
     2  C   -0.000008   0.000171   0.000016  -0.001483   0.000000  -0.000001
     3  C    0.000181   0.000592  -0.000357   0.000447  -0.000000  -0.000003
     4  N    0.002981  -0.003343   0.000172   0.000104   0.000000   0.000000
     5  C   -0.000050   0.000093   0.000006  -0.000051   0.000000   0.000000
     6  O    0.000006  -0.000013   0.000000   0.000001  -0.000000  -0.000000
     7  C   -0.027667  -0.034258   0.003608  -0.003591  -0.000001  -0.000007
     8  C    0.377086   0.368234  -0.032156  -0.038712  -0.000056   0.000164
     9  C   -0.042380  -0.036923   0.363990   0.362198   0.002425  -0.007130
    10  S   -0.000647   0.003865  -0.058060  -0.045427  -0.035533  -0.036469
    11  C    0.000054  -0.000077  -0.003760  -0.004374   0.373013   0.363505
    12  C    0.000006  -0.000002  -0.000362   0.004248  -0.042687  -0.043063
    13  C   -0.002255   0.004399   0.000308  -0.001793   0.000003   0.000003
    14  O   -0.000002  -0.000078   0.000013   0.001707  -0.000001  -0.000004
    15  O    0.001388  -0.000048  -0.000018   0.000031  -0.000000  -0.000001
    16  H   -0.000004  -0.000013   0.000041   0.002604   0.000000  -0.000003
    17  H    0.000000  -0.000000  -0.000001  -0.000111   0.000000  -0.000000
    18  H    0.000000  -0.000005   0.000176   0.002155  -0.000000   0.000152
    19  H    0.000000  -0.000001   0.000000   0.000000   0.000000   0.000000
    20  H   -0.000000  -0.000005   0.000000   0.000041  -0.000000   0.000000
    21  H   -0.000000  -0.000366  -0.000006   0.000098  -0.000000   0.000000
    22  H    0.000051   0.001611   0.000822  -0.000109  -0.000000   0.000006
    23  H    0.000004  -0.000025  -0.000000   0.000004  -0.000000  -0.000000
    24  H   -0.005218  -0.003082  -0.000134   0.000250  -0.000000  -0.000000
    25  H    0.529832  -0.029428   0.000500   0.004634  -0.000002   0.000008
    26  H   -0.029428   0.567903  -0.006719  -0.000220   0.000001  -0.000007
    27  H    0.000500  -0.006719   0.596328  -0.041748   0.000080   0.005730
    28  H    0.004634  -0.000220  -0.041748   0.557459  -0.000018  -0.000998
    29  H   -0.000002   0.000001   0.000080  -0.000018   0.556484  -0.028038
    30  H    0.000008  -0.000007   0.005730  -0.000998  -0.028038   0.581167
    31  H    0.000001   0.000005   0.000025   0.003157   0.004659  -0.003608
    32  H    0.000001   0.000000   0.000006   0.000030  -0.003952   0.004917
    33  H   -0.000000  -0.000000   0.000025  -0.000436  -0.002518  -0.001837
    34  H   -0.000026   0.000013   0.000002  -0.000021   0.000000   0.000000
              31         32         33         34
     1  C    0.001261   0.000011   0.000019   0.000003
     2  C   -0.000017  -0.000000  -0.000000  -0.000001
     3  C   -0.000003   0.000000  -0.000000   0.000006
     4  N   -0.000008  -0.000000   0.000000  -0.000230
     5  C    0.000000  -0.000000  -0.000000  -0.000037
     6  O    0.000000   0.000000   0.000000  -0.000001
     7  C    0.000036   0.000001   0.000000   0.009805
     8  C   -0.000157   0.000009   0.000001  -0.000395
     9  C    0.000934  -0.000193   0.000065  -0.000043
    10  S   -0.004383  -0.000278   0.007460   0.001194
    11  C   -0.037026  -0.037904  -0.028689  -0.000020
    12  C    0.381974   0.385090   0.351967   0.000005
    13  C    0.000373   0.000067   0.000002  -0.007307
    14  O    0.002270   0.000036   0.000021   0.013045
    15  O   -0.000062  -0.000006  -0.000000   0.217749
    16  H    0.004977  -0.000012   0.000017  -0.000016
    17  H   -0.000006  -0.000000  -0.000001  -0.000000
    18  H   -0.000044   0.000002   0.000002  -0.000000
    19  H    0.000000   0.000000   0.000000  -0.000000
    20  H    0.000001   0.000000   0.000000  -0.000000
    21  H   -0.000000   0.000000  -0.000000  -0.000000
    22  H   -0.000001   0.000000   0.000000   0.000000
    23  H    0.000000  -0.000000   0.000000  -0.000001
    24  H   -0.000001  -0.000000   0.000000  -0.000691
    25  H    0.000001   0.000001  -0.000000  -0.000026
    26  H    0.000005   0.000000  -0.000000   0.000013
    27  H    0.000025   0.000006   0.000025   0.000002
    28  H    0.003157   0.000030  -0.000436  -0.000021
    29  H    0.004659  -0.003952  -0.002518   0.000000
    30  H   -0.003608   0.004917  -0.001837   0.000000
    31  H    0.526396  -0.026610  -0.029939   0.000031
    32  H   -0.026610   0.550958  -0.031523   0.000066
    33  H   -0.029939  -0.031523   0.594313   0.000000
    34  H    0.000031   0.000066   0.000000   0.351755
 Mulliken charges:
               1
     1  C   -0.479238
     2  C   -0.246754
     3  C   -0.158865
     4  N   -0.384970
     5  C    0.359107
     6  O   -0.466893
     7  C   -0.049774
     8  C   -0.311274
     9  C   -0.438656
    10  S    0.091691
    11  C   -0.415819
    12  C   -0.442054
    13  C    0.623618
    14  O   -0.479024
    15  O   -0.555234
    16  H    0.201439
    17  H    0.145366
    18  H    0.131277
    19  H    0.157627
    20  H    0.134018
    21  H    0.153208
    22  H    0.158189
    23  H    0.115928
    24  H    0.199765
    25  H    0.190956
    26  H    0.167722
    27  H    0.171491
    28  H    0.194289
    29  H    0.176142
    30  H    0.165505
    31  H    0.175765
    32  H    0.159286
    33  H    0.141050
    34  H    0.415115
 Sum of Mulliken charges =  -0.00000
 Mulliken charges with hydrogens summed into heavy atoms:
               1
     1  C   -0.001156
     2  C    0.044891
     3  C    0.152532
     4  N   -0.384970
     5  C    0.475035
     6  O   -0.466893
     7  C    0.149991
     8  C    0.047404
     9  C   -0.072876
    10  S    0.091691
    11  C   -0.074172
    12  C    0.034047
    13  C    0.623618
    14  O   -0.479024
    15  O   -0.140118
 Electronic spatial extent (au):  <R**2>=           3893.7457
 Charge=             -0.0000 electrons
 Dipole moment (field-independent basis, Debye):
    X=             -1.6183    Y=              3.2978    Z=              2.2329  Tot=              4.2988
 Quadrupole moment (field-independent basis, Debye-Ang):
   XX=           -103.5271   YY=            -99.3389   ZZ=            -96.5146
   XY=              6.5134   XZ=              7.7901   YZ=              2.8585
 Traceless Quadrupole moment (field-independent basis, Debye-Ang):
   XX=             -3.7336   YY=              0.4546   ZZ=              3.2789
   XY=              6.5134   XZ=              7.7901   YZ=              2.8585
 Octapole moment (field-independent basis, Debye-Ang**2):
  XXX=            -30.0941  YYY=             -7.8911  ZZZ=             -7.9842  XYY=             -6.4578
  XXY=             44.0138  XXZ=             -3.0420  XZZ=              3.3794  YZZ=            -14.7331
  YYZ=             -9.6006  XYZ=            -13.6210
 Hexadecapole moment (field-independent basis, Debye-Ang**3):
 XXXX=          -3025.5125 YYYY=          -1367.7225 ZZZZ=           -701.6153 XXXY=             80.0891
 XXXZ=             78.5110 YYYX=             17.9296 YYYZ=             32.7349 ZZZX=              8.2256
 ZZZY=             46.1746 XXYY=           -780.0788 XXZZ=           -638.8504 YYZZ=           -306.2044
 XXYZ=              3.2709 YYXZ=             20.6643 ZZXY=              3.1214
 N-N= 1.231793478723D+03 E-N=-4.977189810972D+03  KE= 1.063544221883D+03
 Calling FoFJK, ICntrl=      2127 FMM=F ISym2X=0 I1Cent= 0 IOpClX= 0 NMat=1 NMatS=1 NMatT=0.
 ***** Axes restored to original set *****
 -------------------------------------------------------------------
 Center     Atomic                   Forces (Hartrees/Bohr)
 Number     Number              X              Y              Z
 -------------------------------------------------------------------
      1        6          -0.006025112    0.003254334    0.003970540
      2        6           0.003918571    0.004580498    0.008910307
      3        6          -0.000744883    0.008230654   -0.020293178
      4        7          -0.006733670   -0.013192181    0.004398098
      5        6           0.001441698   -0.008608808    0.010901190
      6        8           0.005199578    0.002823892    0.007560522
      7        6          -0.006159997   -0.003588723   -0.020191393
      8        6           0.002049933    0.002995418    0.000287550
      9        6           0.008966800    0.001661423    0.002344701
     10       16          -0.000458468   -0.009008193   -0.000752566
     11        6          -0.005152527    0.002445076    0.002128821
     12        6          -0.004471364    0.007208082    0.003127802
     13        6          -0.012155000    0.008601602    0.012976612
     14        8           0.013122088   -0.003948239   -0.008440690
     15        8           0.003223179    0.001334076   -0.004888798
     16        1          -0.001718918   -0.002968269   -0.000137388
     17        1          -0.000087831    0.000432882    0.001897735
     18        1           0.001537518    0.000051136    0.001121227
     19        1           0.001571575   -0.002918065   -0.001994604
     20        1           0.000980987   -0.000234553   -0.003000322
     21        1           0.003096442   -0.000568295    0.001680090
     22        1          -0.003371101   -0.002494347    0.000771736
     23        1           0.003135073    0.001141470    0.001379783
     24        1          -0.002331261    0.002806072    0.002202688
     25        1          -0.002819786    0.002449095   -0.000860461
     26        1          -0.002395196    0.000396327   -0.001508078
     27        1           0.000395712    0.002339855   -0.000669335
     28        1          -0.002185017    0.001545588    0.000085320
     29        1           0.002616642   -0.002818811   -0.001284486
     30        1           0.002137027   -0.001692690   -0.000481899
     31        1          -0.000961315   -0.001300557   -0.001351986
     32        1           0.001492378   -0.000053987   -0.001637436
     33        1          -0.000499877    0.002031029    0.001602781
     34        1           0.003386121   -0.002932791    0.000145118
 -------------------------------------------------------------------
 Cartesian Forces:  Max     0.020293178 RMS     0.005270788

 GradGradGradGradGradGradGradGradGradGradGradGradGradGradGradGradGradGrad
 Berny optimization.
 FormGI is forming the generalized inverse of G from B-inverse, IUseBI=4.
 Internal  Forces:  Max     0.022459911 RMS     0.003922604
 Search for a local minimum.
 Step number   1 out of a maximum of  177
 All quantities printed in internal units (Hartrees-Bohrs-Radians)
 Mixed Optimization -- RFO/linear search
 Second derivative matrix not updated -- first step.
 ITU=  0
     Eigenvalues ---    0.00230   0.00230   0.00230   0.00323   0.00332
     Eigenvalues ---    0.00345   0.00506   0.00529   0.00545   0.00781
     Eigenvalues ---    0.00865   0.00960   0.01828   0.01828   0.02351
     Eigenvalues ---    0.03102   0.03284   0.03451   0.03775   0.04587
     Eigenvalues ---    0.04673   0.04847   0.04881   0.05149   0.05485
     Eigenvalues ---    0.05487   0.05530   0.05700   0.05741   0.05752
     Eigenvalues ---    0.05847   0.06802   0.08526   0.08942   0.09810
     Eigenvalues ---    0.11212   0.11404   0.12353   0.12643   0.13176
     Eigenvalues ---    0.13753   0.13853   0.16000   0.16000   0.16000
     Eigenvalues ---    0.16000   0.16000   0.16000   0.16000   0.16000
     Eigenvalues ---    0.19084   0.19664   0.21923   0.21941   0.21964
     Eigenvalues ---    0.22000   0.22007   0.22041   0.24285   0.24471
     Eigenvalues ---    0.24993   0.24999   0.24999   0.25000   0.25000
     Eigenvalues ---    0.28462   0.29105   0.29168   0.29253   0.30402
     Eigenvalues ---    0.30567   0.33342   0.33685   0.33816   0.33860
     Eigenvalues ---    0.33860   0.33923   0.34000   0.34178   0.34196
     Eigenvalues ---    0.34222   0.34234   0.34246   0.34283   0.34307
     Eigenvalues ---    0.34315   0.34469   0.34701   0.34888   0.35027
     Eigenvalues ---    0.36657   0.47369   0.51491   0.54980   0.93736
     Eigenvalues ---    0.94817
 RFO step:  Lambda=-1.39506836D-02 EMin= 2.30000000D-03
 Linear search not attempted -- first point.
 Iteration  1 RMS(Cart)=  0.18036415 RMS(Int)=  0.00481683
 Iteration  2 RMS(Cart)=  0.00959999 RMS(Int)=  0.00048722
 Iteration  3 RMS(Cart)=  0.00004560 RMS(Int)=  0.00048662
 Iteration  4 RMS(Cart)=  0.00000002 RMS(Int)=  0.00048662
 Variable       Old X    -DE/DX   Delta X   Delta X   Delta X     New X
                                 (Linear)    (Quad)   (Total)
    R1        2.87170   0.00812   0.00000   0.02553   0.02553   2.89723
    R2        2.05857   0.00317   0.00000   0.00875   0.00875   2.06731
    R3        2.06917   0.00083   0.00000   0.00233   0.00233   2.07150
    R4        2.06802   0.00188   0.00000   0.00527   0.00527   2.07329
    R5        2.89785   0.00459   0.00000   0.01503   0.01503   2.91288
    R6        2.07031  -0.00064   0.00000  -0.00180  -0.00180   2.06850
    R7        2.07330   0.00103   0.00000   0.00290   0.00290   2.07620
    R8        2.76367   0.00273   0.00000   0.00718   0.00718   2.77085
    R9        2.07566   0.00033   0.00000   0.00093   0.00093   2.07660
   R10        2.06162  -0.00078   0.00000  -0.00216  -0.00216   2.05946
   R11        2.62617  -0.02246   0.00000  -0.04606  -0.04606   2.58011
   R12        2.80942  -0.01724   0.00000  -0.04897  -0.04897   2.76045
   R13        2.31257  -0.00819   0.00000  -0.00861  -0.00861   2.30397
   R14        2.08454   0.00102   0.00000   0.00294   0.00294   2.08748
   R15        2.91139  -0.00279   0.00000  -0.00934  -0.00934   2.90205
   R16        2.89654  -0.00686   0.00000  -0.02245  -0.02245   2.87409
   R17        2.07866  -0.00338   0.00000  -0.00964  -0.00964   2.06902
   R18        2.89478   0.00381   0.00000   0.01243   0.01243   2.90721
   R19        2.07567  -0.00240   0.00000  -0.00679  -0.00679   2.06887
   R20        2.07461  -0.00138   0.00000  -0.00389  -0.00389   2.07071
   R21        3.44761   0.00530   0.00000   0.02065   0.02065   3.46826
   R22        2.06957   0.00030   0.00000   0.00084   0.00084   2.07041
   R23        2.05632   0.00226   0.00000   0.00621   0.00621   2.06252
   R24        3.44271   0.00590   0.00000   0.02282   0.02282   3.46553
   R25        2.86847   0.00782   0.00000   0.02447   0.02447   2.89294
   R26        2.06816   0.00015   0.00000   0.00043   0.00043   2.06859
   R27        2.06854   0.00074   0.00000   0.00207   0.00207   2.07061
   R28        2.06545   0.00046   0.00000   0.00127   0.00127   2.06672
   R29        2.07001  -0.00121   0.00000  -0.00339  -0.00339   2.06663
   R30        2.06937   0.00258   0.00000   0.00723   0.00723   2.07660
   R31        2.30789  -0.01252   0.00000  -0.01301  -0.01301   2.29488
   R32        2.55150  -0.00161   0.00000  -0.00285  -0.00285   2.54865
   R33        1.85090  -0.00337   0.00000  -0.00636  -0.00636   1.84454
    A1        1.94429  -0.00205   0.00000  -0.01270  -0.01272   1.93157
    A2        1.91919   0.00290   0.00000   0.01905   0.01907   1.93826
    A3        1.94105  -0.00016   0.00000  -0.00244  -0.00249   1.93856
    A4        1.87523  -0.00003   0.00000   0.00276   0.00281   1.87804
    A5        1.90151   0.00055   0.00000  -0.00123  -0.00131   1.90020
    A6        1.88027  -0.00119   0.00000  -0.00515  -0.00517   1.87510
    A7        1.98398   0.00401   0.00000   0.01835   0.01793   2.00191
    A8        1.91061  -0.00052   0.00000  -0.00825  -0.00821   1.90239
    A9        1.87051   0.00211   0.00000   0.04090   0.04055   1.91106
   A10        1.94454  -0.00419   0.00000  -0.04548  -0.04557   1.89897
   A11        1.88579  -0.00196   0.00000  -0.00117  -0.00222   1.88357
   A12        1.86278   0.00060   0.00000  -0.00176  -0.00200   1.86078
   A13        2.00191   0.00091   0.00000   0.00135  -0.00087   2.00104
   A14        1.86739   0.00192   0.00000   0.04529   0.04403   1.91143
   A15        1.94771  -0.00051   0.00000  -0.02859  -0.03036   1.91734
   A16        1.83907   0.00308   0.00000   0.05573   0.05472   1.89378
   A17        1.94910  -0.00466   0.00000  -0.06365  -0.06482   1.88427
   A18        1.84629  -0.00023   0.00000   0.00192   0.00345   1.84973
   A19        2.07192   0.00326   0.00000   0.01241   0.01228   2.08421
   A20        2.16930   0.00484   0.00000   0.01840   0.01827   2.18757
   A21        2.04194  -0.00810   0.00000  -0.03062  -0.03073   2.01121
   A22        2.19218  -0.00539   0.00000  -0.02305  -0.02308   2.16909
   A23        1.97043  -0.00067   0.00000  -0.00785  -0.00789   1.96255
   A24        2.12057   0.00606   0.00000   0.03085   0.03082   2.15139
   A25        2.03837  -0.00434   0.00000  -0.03801  -0.03940   1.99897
   A26        1.93874   0.00130   0.00000  -0.01721  -0.01939   1.91934
   A27        1.81712   0.00179   0.00000   0.03422   0.03490   1.85202
   A28        1.97049  -0.00084   0.00000  -0.02346  -0.02529   1.94520
   A29        1.84377   0.00314   0.00000   0.04498   0.04566   1.88943
   A30        1.83326  -0.00021   0.00000   0.01648   0.01693   1.85018
   A31        2.02791  -0.00057   0.00000  -0.00546  -0.00549   2.02242
   A32        1.89717  -0.00186   0.00000  -0.02313  -0.02318   1.87399
   A33        1.88861  -0.00084   0.00000  -0.00586  -0.00582   1.88279
   A34        1.91191   0.00118   0.00000   0.00524   0.00498   1.91689
   A35        1.89705   0.00149   0.00000   0.01780   0.01776   1.91481
   A36        1.83096   0.00073   0.00000   0.01347   0.01327   1.84422
   A37        1.96290  -0.00504   0.00000  -0.02285  -0.02330   1.93960
   A38        1.90055   0.00202   0.00000   0.02287   0.02297   1.92352
   A39        1.94393   0.00037   0.00000  -0.01297  -0.01358   1.93035
   A40        1.86038   0.00364   0.00000   0.03681   0.03693   1.89731
   A41        1.91106   0.00011   0.00000  -0.02033  -0.02105   1.89001
   A42        1.88134  -0.00078   0.00000   0.00002   0.00024   1.88158
   A43        1.73538  -0.00123   0.00000  -0.00466  -0.00466   1.73072
   A44        1.93903   0.00929   0.00000   0.04156   0.04140   1.98043
   A45        1.88300  -0.00557   0.00000  -0.03014  -0.03094   1.85206
   A46        1.92076  -0.00486   0.00000  -0.02938  -0.02964   1.89112
   A47        1.90788   0.00203   0.00000   0.02464   0.02465   1.93253
   A48        1.93575  -0.00083   0.00000   0.00270   0.00291   1.93866
   A49        1.87550  -0.00048   0.00000  -0.01167  -0.01217   1.86333
   A50        1.95419  -0.00012   0.00000  -0.00310  -0.00321   1.95099
   A51        1.94425  -0.00142   0.00000  -0.01133  -0.01140   1.93286
   A52        1.91818   0.00145   0.00000   0.01378   0.01378   1.93196
   A53        1.89187  -0.00062   0.00000  -0.01341  -0.01357   1.87830
   A54        1.87579   0.00015   0.00000   0.00672   0.00668   1.88247
   A55        1.87660   0.00063   0.00000   0.00815   0.00818   1.88478
   A56        2.21966  -0.00722   0.00000  -0.02719  -0.02727   2.19238
   A57        1.96519  -0.00873   0.00000  -0.03288  -0.03297   1.93222
   A58        2.09792   0.01597   0.00000   0.06072   0.06064   2.15856
   A59        1.81565   0.00415   0.00000   0.02383   0.02383   1.83948
    D1       -1.15587   0.00202   0.00000   0.04226   0.04251  -1.11335
    D2        1.03099  -0.00095   0.00000  -0.01068  -0.01071   1.02028
    D3        3.04495   0.00062   0.00000   0.00505   0.00473   3.04968
    D4        3.05031   0.00148   0.00000   0.03449   0.03479   3.08510
    D5       -1.04602  -0.00149   0.00000  -0.01845  -0.01843  -1.06445
    D6        0.96795   0.00008   0.00000  -0.00273  -0.00299   0.96496
    D7        0.96908   0.00118   0.00000   0.03010   0.03039   0.99948
    D8       -3.12725  -0.00179   0.00000  -0.02284  -0.02283   3.13311
    D9       -1.11328  -0.00022   0.00000  -0.00712  -0.00739  -1.12067
   D10        1.60612  -0.00648   0.00000  -0.15886  -0.15885   1.44727
   D11       -2.64437  -0.00085   0.00000  -0.05883  -0.05840  -2.70277
   D12       -0.63253  -0.00028   0.00000  -0.04517  -0.04542  -0.67796
   D13       -0.56252  -0.00553   0.00000  -0.12573  -0.12570  -0.68822
   D14        1.47018   0.00009   0.00000  -0.02570  -0.02525   1.44493
   D15       -2.80117   0.00067   0.00000  -0.01204  -0.01227  -2.81344
   D16       -2.60343  -0.00270   0.00000  -0.09719  -0.09738  -2.70081
   D17       -0.57073   0.00292   0.00000   0.00284   0.00307  -0.56767
   D18        1.44111   0.00350   0.00000   0.01650   0.01604   1.45715
   D19        1.21376   0.00306   0.00000   0.06572   0.06526   1.27902
   D20       -1.93540   0.00374   0.00000   0.09553   0.09550  -1.83990
   D21       -0.83512  -0.00184   0.00000  -0.02752  -0.02855  -0.86367
   D22        2.29890  -0.00116   0.00000   0.00229   0.00169   2.30060
   D23       -2.83148  -0.00105   0.00000  -0.03038  -0.02953  -2.86101
   D24        0.30254  -0.00037   0.00000  -0.00056   0.00071   0.30326
   D25        3.14089   0.00107   0.00000   0.03660   0.03642  -3.10588
   D26        0.00312   0.00155   0.00000   0.05143   0.05124   0.05436
   D27        0.00631   0.00039   0.00000   0.00876   0.00895   0.01526
   D28       -3.13146   0.00087   0.00000   0.02359   0.02378  -3.10768
   D29       -0.45986   0.00123   0.00000  -0.00298  -0.00328  -0.46314
   D30        1.83421  -0.00286   0.00000  -0.09153  -0.09105   1.74316
   D31       -2.48443  -0.00161   0.00000  -0.06207  -0.06192  -2.54636
   D32        2.67428   0.00193   0.00000   0.02653   0.02601   2.70029
   D33       -1.31483  -0.00215   0.00000  -0.06202  -0.06176  -1.37659
   D34        0.64971  -0.00090   0.00000  -0.03256  -0.03263   0.61707
   D35        1.47921  -0.00165   0.00000  -0.05597  -0.05554   1.42368
   D36       -2.63870  -0.00202   0.00000  -0.07203  -0.07149  -2.71019
   D37       -0.65941  -0.00253   0.00000  -0.07095  -0.07044  -0.72985
   D38       -0.80011   0.00157   0.00000   0.03144   0.03093  -0.76918
   D39        1.36515   0.00119   0.00000   0.01538   0.01498   1.38013
   D40       -2.93873   0.00068   0.00000   0.01646   0.01602  -2.92271
   D41       -2.79419   0.00038   0.00000  -0.00308  -0.00319  -2.79738
   D42       -0.62892   0.00001   0.00000  -0.01915  -0.01914  -0.64806
   D43        1.35038  -0.00050   0.00000  -0.01806  -0.01810   1.33228
   D44       -0.55171   0.00293   0.00000   0.04788   0.04758  -0.50413
   D45        2.62121   0.00229   0.00000   0.02251   0.02253   2.64375
   D46        1.77676  -0.00283   0.00000  -0.04458  -0.04460   1.73217
   D47       -1.33350  -0.00347   0.00000  -0.06995  -0.06965  -1.40315
   D48       -2.50600   0.00038   0.00000   0.00720   0.00703  -2.49897
   D49        0.66692  -0.00026   0.00000  -0.01817  -0.01802   0.64890
   D50        1.63180  -0.00291   0.00000  -0.06423  -0.06408   1.56772
   D51       -2.59342  -0.00014   0.00000  -0.01757  -0.01758  -2.61099
   D52       -0.52102   0.00040   0.00000  -0.01089  -0.01109  -0.53212
   D53       -0.52585  -0.00095   0.00000  -0.03333  -0.03309  -0.55893
   D54        1.53212   0.00182   0.00000   0.01333   0.01342   1.54554
   D55       -2.67867   0.00236   0.00000   0.02001   0.01990  -2.65877
   D56       -2.51720  -0.00325   0.00000  -0.06169  -0.06158  -2.57877
   D57       -0.45923  -0.00048   0.00000  -0.01503  -0.01507  -0.47430
   D58        1.61316   0.00006   0.00000  -0.00835  -0.00859   1.60457
   D59       -2.88873   0.00192   0.00000   0.04552   0.04523  -2.84350
   D60        1.31290  -0.00000   0.00000   0.00700   0.00691   1.31981
   D61       -0.71766  -0.00111   0.00000  -0.00267  -0.00229  -0.71995
   D62        1.53243  -0.00164   0.00000  -0.05693  -0.05684   1.47559
   D63       -2.65978   0.00285   0.00000  -0.02108  -0.02190  -2.68168
   D64       -0.61841  -0.00359   0.00000  -0.06843  -0.06770  -0.68612
   D65       -1.07073   0.00124   0.00000   0.02427   0.02439  -1.04634
   D66        1.05107  -0.00065   0.00000  -0.00331  -0.00310   1.04796
   D67        3.12910   0.00017   0.00000   0.00864   0.00877   3.13787
   D68        3.13635   0.00114   0.00000   0.02034   0.02009  -3.12674
   D69       -1.02504  -0.00076   0.00000  -0.00724  -0.00741  -1.03244
   D70        1.05300   0.00006   0.00000   0.00471   0.00447   1.05746
   D71        1.07149   0.00096   0.00000   0.01771   0.01775   1.08924
   D72       -3.08990  -0.00094   0.00000  -0.00987  -0.00974  -3.09964
   D73       -1.01187  -0.00011   0.00000   0.00208   0.00213  -1.00974
   D74        3.12369  -0.00165   0.00000  -0.03546  -0.03497   3.08872
   D75        0.01098  -0.00182   0.00000  -0.05723  -0.05772  -0.04673
         Item               Value     Threshold  Converged?
 Maximum Force            0.022460     0.000450     NO 
 RMS     Force            0.003923     0.000300     NO 
 Maximum Displacement     0.662135     0.001800     NO 
 RMS     Displacement     0.185405     0.001200     NO 
 Predicted change in Energy=-8.304328D-03
 GradGradGradGradGradGradGradGradGradGradGradGradGradGradGradGradGradGrad

                          Input orientation:                          
 ---------------------------------------------------------------------
 Center     Atomic      Atomic             Coordinates (Angstroms)
 Number     Number       Type             X           Y           Z
 ---------------------------------------------------------------------
      1          6           0        0.861723   -0.194378    0.122242
      2          6           0        1.311955   -0.072099   -1.338195
      3          6           0        2.047861   -1.308544   -1.891050
[...]
   289    C   13  pz     Ryd( 3p)     0.00004       1.05058
   290    C   13  dxy    Ryd( 3d)     0.00168       1.97127
   291    C   13  dxz    Ryd( 3d)     0.00108       2.08967
   292    C   13  dyz    Ryd( 3d)     0.00114       2.47219
   293    C   13  dx2y2  Ryd( 3d)     0.00148       2.09250
   294    C   13  dz2    Ryd( 3d)     0.00186       2.31989
 
   295    O   14  S      Cor( 1S)     0.99986     -18.75397
   296    O   14  S      Val( 2S)     0.85029      -0.80889
   297    O   14  S      Ryd( 4S)     0.00042       1.73924
   298    O   14  S      Ryd( 3S)     0.00004       1.70227
   299    O   14  S      Ryd( 5S)     0.00000      49.76179
   300    O   14  px     Val( 2p)     0.78170      -0.17031
   301    O   14  px     Ryd( 3p)     0.00062       0.93539
   302    O   14  px     Ryd( 4p)     0.00005       1.29970
   303    O   14  px     Ryd( 5p)     0.00001       5.02157
   304    O   14  py     Val( 2p)     0.85115      -0.19599
   305    O   14  py     Ryd( 3p)     0.00163       1.06124
   306    O   14  py     Ryd( 4p)     0.00009       1.30926
   307    O   14  py     Ryd( 5p)     0.00002       5.14604
   308    O   14  pz     Val( 2p)     0.81678      -0.20175
   309    O   14  pz     Ryd( 3p)     0.00084       0.95229
   310    O   14  pz     Ryd( 4p)     0.00015       1.44780
   311    O   14  pz     Ryd( 5p)     0.00002       5.02098
   312    O   14  dxy    Ryd( 3d)     0.00037       3.09645
   313    O   14  dxz    Ryd( 3d)     0.00046       3.15226
   314    O   14  dyz    Ryd( 3d)     0.00077       3.66353
   315    O   14  dx2y2  Ryd( 3d)     0.00033       3.16006
   316    O   14  dz2    Ryd( 3d)     0.00071       3.30557
 
   317    O   15  S      Cor( 1S)     0.99987     -18.86629
   318    O   15  S      Val( 2S)     0.84064      -0.85621
   319    O   15  S      Ryd( 3S)     0.00083       1.32749
   320    O   15  S      Ryd( 4S)     0.00026       1.42180
   321    O   15  S      Ryd( 5S)     0.00000      49.74516
   322    O   15  px     Val( 2p)     0.85093      -0.24466
   323    O   15  px     Ryd( 3p)     0.00086       0.78755
   324    O   15  px     Ryd( 4p)     0.00006       1.03751
   325    O   15  px     Ryd( 5p)     0.00001       5.18524
   326    O   15  py     Val( 2p)     0.80570      -0.26359
   327    O   15  py     Ryd( 3p)     0.00059       0.79582
   328    O   15  py     Ryd( 4p)     0.00008       1.23520
   329    O   15  py     Ryd( 5p)     0.00006       5.23512
   330    O   15  pz     Val( 2p)     0.83781      -0.24735
   331    O   15  pz     Ryd( 3p)     0.00101       0.88281
   332    O   15  pz     Ryd( 4p)     0.00008       1.14409
   333    O   15  pz     Ryd( 5p)     0.00002       5.27653
   334    O   15  dxy    Ryd( 3d)     0.00044       3.21949
   335    O   15  dxz    Ryd( 3d)     0.00047       3.37365
   336    O   15  dyz    Ryd( 3d)     0.00038       3.19411
   337    O   15  dx2y2  Ryd( 3d)     0.00046       3.30397
   338    O   15  dz2    Ryd( 3d)     0.00052       3.30561
 
   339    H   16  S      Val( 1S)     0.38656       0.16414
   340    H   16  S      Ryd( 2S)     0.00121       0.50572
   341    H   16  S      Ryd( 4S)     0.00028       2.13685
   342    H   16  S      Ryd( 3S)     0.00002       0.94664
   343    H   16  px     Ryd( 2p)     0.00006       1.95309
   344    H   16  py     Ryd( 2p)     0.00014       2.54068
   345    H   16  pz     Ryd( 2p)     0.00008       2.22883
 
   346    H   17  S      Val( 1S)     0.40098       0.13703
   347    H   17  S      Ryd( 2S)     0.00023       0.44795
   348    H   17  S      Ryd( 3S)     0.00025       1.26125
   349    H   17  S      Ryd( 4S)     0.00002       1.60040
   350    H   17  px     Ryd( 2p)     0.00007       1.89671
   351    H   17  py     Ryd( 2p)     0.00011       2.39921
   352    H   17  pz     Ryd( 2p)     0.00011       2.30559
 
   353    H   18  S      Val( 1S)     0.40328       0.13203
   354    H   18  S      Ryd( 2S)     0.00083       0.46168
   355    H   18  S      Ryd( 4S)     0.00029       1.80158
   356    H   18  S      Ryd( 3S)     0.00002       1.10580
   357    H   18  px     Ryd( 2p)     0.00011       2.46634
   358    H   18  py     Ryd( 2p)     0.00009       2.04304
   359    H   18  pz     Ryd( 2p)     0.00009       2.12229
 
   360    H   19  S      Val( 1S)     0.40683       0.12781
   361    H   19  S      Ryd( 2S)     0.00057       0.49952
   362    H   19  S      Ryd( 4S)     0.00039       1.90582
   363    H   19  S      Ryd( 3S)     0.00001       1.04584
   364    H   19  px     Ryd( 2p)     0.00012       2.52223
   365    H   19  py     Ryd( 2p)     0.00009       1.94399
   366    H   19  pz     Ryd( 2p)     0.00010       2.20800
 
   367    H   20  S      Val( 1S)     0.39605       0.13340
   368    H   20  S      Ryd( 2S)     0.00120       0.36228
   369    H   20  S      Ryd( 4S)     0.00034       1.69460
   370    H   20  S      Ryd( 3S)     0.00001       1.20503
   371    H   20  px     Ryd( 2p)     0.00007       1.97578
   372    H   20  py     Ryd( 2p)     0.00013       2.52103
   373    H   20  pz     Ryd( 2p)     0.00009       2.12999
 
   374    H   21  S      Val( 1S)     0.39456       0.12213
   375    H   21  S      Ryd( 2S)     0.00308       0.38571
   376    H   21  S      Ryd( 4S)     0.00033       1.51995
   377    H   21  S      Ryd( 3S)     0.00003       1.37417
   378    H   21  px     Ryd( 2p)     0.00011       2.48912
   379    H   21  py     Ryd( 2p)     0.00007       1.94547
   380    H   21  pz     Ryd( 2p)     0.00012       2.33250
 
   381    H   22  S      Val( 1S)     0.39130       0.12635
   382    H   22  S      Ryd( 2S)     0.00262       0.60231
   383    H   22  S      Ryd( 4S)     0.00053       1.93613
   384    H   22  S      Ryd( 3S)     0.00001       0.85244
   385    H   22  px     Ryd( 2p)     0.00011       2.54020
   386    H   22  py     Ryd( 2p)     0.00007       1.99598
   387    H   22  pz     Ryd( 2p)     0.00013       2.31304
 
   388    H   23  S      Val( 1S)     0.44061       0.07149
   389    H   23  S      Ryd( 2S)     0.00044       0.43168
   390    H   23  S      Ryd( 3S)     0.00066       1.27200
   391    H   23  S      Ryd( 4S)     0.00006       1.44003
   392    H   23  px     Ryd( 2p)     0.00026       2.45075
   393    H   23  py     Ryd( 2p)     0.00015       2.30841
   394    H   23  pz     Ryd( 2p)     0.00005       1.82378
 
   395    H   24  S      Val( 1S)     0.38032       0.14044
   396    H   24  S      Ryd( 2S)     0.00037       0.38953
   397    H   24  S      Ryd( 3S)     0.00084       0.91878
   398    H   24  S      Ryd( 4S)     0.00021       2.55368
   399    H   24  px     Ryd( 2p)     0.00010       2.20356
   400    H   24  py     Ryd( 2p)     0.00012       2.64679
   401    H   24  pz     Ryd( 2p)     0.00009       2.16372
 
   402    H   25  S      Val( 1S)     0.38819       0.13114
   403    H   25  S      Ryd( 2S)     0.00052       0.49692
   404    H   25  S      Ryd( 4S)     0.00032       1.80781
   405    H   25  S      Ryd( 3S)     0.00002       1.13894
   406    H   25  px     Ryd( 2p)     0.00010       2.09543
   407    H   25  py     Ryd( 2p)     0.00013       2.58214
   408    H   25  pz     Ryd( 2p)     0.00008       2.04756
 
   409    H   26  S      Val( 1S)     0.38180       0.12866
   410    H   26  S      Ryd( 2S)     0.00144       0.47750
   411    H   26  S      Ryd( 4S)     0.00036       1.51992
   412    H   26  S      Ryd( 3S)     0.00002       1.36274
   413    H   26  px     Ryd( 2p)     0.00008       2.12125
   414    H   26  py     Ryd( 2p)     0.00008       2.05225
   415    H   26  pz     Ryd( 2p)     0.00014       2.54821
 
   416    H   27  S      Val( 1S)     0.38932       0.12727
   417    H   27  S      Ryd( 2S)     0.00204       0.41280
   418    H   27  S      Ryd( 3S)     0.00049       1.39383
   419    H   27  S      Ryd( 4S)     0.00003       1.48532
   420    H   27  px     Ryd( 2p)     0.00010       2.00459
   421    H   27  py     Ryd( 2p)     0.00008       2.17059
   422    H   27  pz     Ryd( 2p)     0.00010       2.47978
 
   423    H   28  S      Val( 1S)     0.38829       0.13842
   424    H   28  S      Ryd( 2S)     0.00268       0.87133
   425    H   28  S      Ryd( 4S)     0.00111       3.39341
   426    H   28  S      Ryd( 3S)     0.00031       2.68955
   427    H   28  px     Ryd( 2p)     0.00008       2.02198
   428    H   28  py     Ryd( 2p)     0.00009       2.42025
   429    H   28  pz     Ryd( 2p)     0.00014       2.44292
 
   430    H   29  S      Val( 1S)     0.39815       0.11616
   431    H   29  S      Ryd( 2S)     0.00024       0.36317
   432    H   29  S      Ryd( 4S)     0.00037       1.44142
   433    H   29  S      Ryd( 3S)     0.00002       1.41245
   434    H   29  px     Ryd( 2p)     0.00014       2.64010
   435    H   29  py     Ryd( 2p)     0.00008       1.90851
   436    H   29  pz     Ryd( 2p)     0.00006       1.82985
 
   437    H   30  S      Val( 1S)     0.39653       0.12102
   438    H   30  S      Ryd( 2S)     0.00053       0.39475
   439    H   30  S      Ryd( 4S)     0.00051       1.55104
   440    H   30  S      Ryd( 3S)     0.00001       1.25150
   441    H   30  px     Ryd( 2p)     0.00005       1.90566
   442    H   30  py     Ryd( 2p)     0.00010       2.42016
   443    H   30  pz     Ryd( 2p)     0.00012       2.16792
 
   444    H   31  S      Val( 1S)     0.39270       0.14446
   445    H   31  S      Ryd( 2S)     0.00083       0.60067
   446    H   31  S      Ryd( 4S)     0.00023       2.11513
   447    H   31  S      Ryd( 3S)     0.00002       0.69491
   448    H   31  px     Ryd( 2p)     0.00014       2.68088
   449    H   31  py     Ryd( 2p)     0.00008       1.97704
   450    H   31  pz     Ryd( 2p)     0.00006       1.87446
 
   451    H   32  S      Val( 1S)     0.39914       0.13120
   452    H   32  S      Ryd( 2S)     0.00048       0.53936
   453    H   32  S      Ryd( 4S)     0.00031       1.89942
   454    H   32  S      Ryd( 3S)     0.00002       0.92914
   455    H   32  px     Ryd( 2p)     0.00006       1.84025
   456    H   32  py     Ryd( 2p)     0.00011       2.40527
   457    H   32  pz     Ryd( 2p)     0.00008       2.22397
 
   458    H   33  S      Val( 1S)     0.40244       0.11842
   459    H   33  S      Ryd( 2S)     0.00032       0.37960
   460    H   33  S      Ryd( 4S)     0.00038       1.38635
   461    H   33  S      Ryd( 3S)     0.00002       1.33238
   462    H   33  px     Ryd( 2p)     0.00008       2.08844
   463    H   33  py     Ryd( 2p)     0.00011       2.32511
   464    H   33  pz     Ryd( 2p)     0.00009       1.99838
 
   465    H   34  S      Val( 1S)     0.25764       0.16445
   466    H   34  S      Ryd( 3S)     0.00109       0.75007
   467    H   34  S      Ryd( 4S)     0.00031       1.89799
   468    H   34  S      Ryd( 2S)     0.00013       0.71802
   469    H   34  px     Ryd( 2p)     0.00059       1.93953
   470    H   34  py     Ryd( 2p)     0.00051       1.85160
   471    H   34  pz     Ryd( 2p)     0.00052       2.36401

 WARNING:  Population inversion found on atom  C    1
           Population inversion found on atom  C    2
           Population inversion found on atom  C    3
           Population inversion found on atom  N    4
           Population inversion found on atom  C    5
           Population inversion found on atom  O    6
           Population inversion found on atom  C    7
           Population inversion found on atom  C    8
           Population inversion found on atom  C    9
           Population inversion found on atom  S   10
           Population inversion found on atom  C   11
           Population inversion found on atom  C   13
           Population inversion found on atom  O   14
           Population inversion found on atom  H   16
           Population inversion found on atom  H   17
           Population inversion found on atom  H   18
           Population inversion found on atom  H   19
           Population inversion found on atom  H   20
           Population inversion found on atom  H   21
           Population inversion found on atom  H   22
           Population inversion found on atom  H   23
           Population inversion found on atom  H   24
           Population inversion found on atom  H   25
           Population inversion found on atom  H   26
           Population inversion found on atom  H   28
           Population inversion found on atom  H   29
           Population inversion found on atom  H   30
           Population inversion found on atom  H   31
           Population inversion found on atom  H   32
           Population inversion found on atom  H   33
           Population inversion found on atom  H   34


 Summary of Natural Population Analysis:                  
                                                          
                                       Natural Population 
                Natural  -----------------------------------------------
    Atom  No    Charge         Core      Valence    Rydberg      Total
 -----------------------------------------------------------------------
      C    1   -0.29620      0.99965     2.29073    0.00581     3.29620
      C    2   -0.19128      0.99963     2.18345    0.00820     3.19128
      C    3   -0.08696      0.99958     2.07369    0.01369     3.08696
      N    4   -0.25785      0.99966     2.74428    0.01391     3.75785
      C    5    0.27911      0.99968     1.69999    0.02122     2.72089
      O    6   -0.31643      0.99989     3.31089    0.00565     4.31643
      C    7   -0.04942      0.99951     2.03423    0.01568     3.04942
      C    8   -0.20005      0.99960     2.18950    0.01095     3.20005
      C    9   -0.26175      0.99958     2.25042    0.01175     3.26175
      S   10    0.08366      4.99962     2.89940    0.01732     7.91634
      C   11   -0.25099      0.99961     2.24145    0.00993     3.25099
      C   12   -0.29200      0.99965     2.28572    0.00663     3.29200
      C   13    0.41926      0.99969     1.55358    0.02747     2.58074
      O   14   -0.30633      0.99986     3.29993    0.00653     4.30633
      O   15   -0.34105      0.99987     3.33508    0.00611     4.34105
      H   16    0.11164      0.00000     0.38656    0.00180     0.38836
      H   17    0.09822      0.00000     0.40098    0.00079     0.40178
      H   18    0.09529      0.00000     0.40328    0.00142     0.40471
      H   19    0.09188      0.00000     0.40683    0.00129     0.40812
      H   20    0.10211      0.00000     0.39605    0.00185     0.39789
      H   21    0.10172      0.00000     0.39456    0.00373     0.39828
      H   22    0.10523      0.00000     0.39130    0.00347     0.39477
      H   23    0.05777      0.00000     0.44061    0.00162     0.44223
      H   24    0.11796      0.00000     0.38032    0.00172     0.38204
      H   25    0.11064      0.00000     0.38819    0.00118     0.38936
      H   26    0.11607      0.00000     0.38180    0.00213     0.38393
      H   27    0.10784      0.00000     0.38932    0.00284     0.39216
      H   28    0.10730      0.00000     0.38829    0.00441     0.39270
      H   29    0.10093      0.00000     0.39815    0.00091     0.39907
      H   30    0.10215      0.00000     0.39653    0.00132     0.39785
      H   31    0.10596      0.00000     0.39270    0.00134     0.39404
      H   32    0.09980      0.00000     0.39914    0.00106     0.40020
      H   33    0.09655      0.00000     0.40244    0.00101     0.40345
      H   34    0.23921      0.00000     0.25764    0.00315     0.26079
 =======================================================================
   * Total *    0.00000     18.99506    43.78703    0.21791    63.00000

                                 Natural Population      
 --------------------------------------------------------
   Core                      18.99506 ( 99.9740% of  19)
   Valence                   43.78703 ( 99.5160% of  44)
   Natural Minimal Basis     62.78209 ( 99.6541% of  63)
   Natural Rydberg Basis      0.21791 (  0.3459% of  63)
 --------------------------------------------------------

    Atom  No          Natural Electron Configuration
 ----------------------------------------------------------------------------
      C    1      [core]2S( 0.54)2p( 1.75)
      C    2      [core]2S( 0.51)2p( 1.67)
      C    3      [core]2S( 0.50)2p( 1.58)
      N    4      [core]2S( 0.61)2p( 2.13)4p( 0.01)
      C    5      [core]2S( 0.42)2p( 1.28)3d( 0.01)4p( 0.01)
      O    6      [core]2S( 0.85)2p( 2.46)
      C    7      [core]2S( 0.48)2p( 1.55)3p( 0.01)
      C    8      [core]2S( 0.51)2p( 1.68)
      C    9      [core]2S( 0.55)2p( 1.70)
      S   10      [core]3S( 0.84)3p( 2.06)3d( 0.01)5p( 0.01)
      C   11      [core]2S( 0.55)2p( 1.69)
      C   12      [core]2S( 0.54)2p( 1.74)
      C   13      [core]2S( 0.39)2p( 1.16)3d( 0.01)4p( 0.01)
      O   14      [core]2S( 0.85)2p( 2.45)
      O   15      [core]2S( 0.84)2p( 2.49)
      H   16            1S( 0.39)
      H   17            1S( 0.40)
      H   18            1S( 0.40)
      H   19            1S( 0.41)
      H   20            1S( 0.40)
      H   21            1S( 0.39)
      H   22            1S( 0.39)
      H   23            1S( 0.44)
      H   24            1S( 0.38)
      H   25            1S( 0.39)
      H   26            1S( 0.38)
      H   27            1S( 0.39)
      H   28            1S( 0.39)
      H   29            1S( 0.40)
      H   30            1S( 0.40)
      H   31            1S( 0.39)
      H   32            1S( 0.40)
      H   33            1S( 0.40)
      H   34            1S( 0.26)


 NBO analysis skipped by request.
 1\1\GINC-NODE108\SP\UB3LYP\6-311++G(d,p)\C10H19N1O3S1(1-,2)\VSC10255\1
 0-Dec-2020\0\\# B3LYP/6-311++G(d,p) empiricaldispersion=gd3bj scf=xqc 
 pop=npa geom=check\\CID_116504417_JID_5386_Energie_anion\\-1,2\C,0,0.8
 41315627,0.0573797122,-0.1934901062\C,0,1.5912566051,0.0560993095,-1.5
 258171202\C,0,2.1190000789,-1.3221112985,-1.9535660561\N,0,1.066899211
 2,-2.3085489814,-2.2377146583\C,0,0.2158118442,-2.0878438907,-3.281132
 317\O,0,-0.6650090909,-2.861865061,-3.6251773634\C,0,0.9235960851,-3.6
 286153094,-1.6147045095\C,0,2.0764196663,-4.0460982031,-0.683516638\C,
 0,2.0763902091,-3.3975606571,0.7137776208\S,0,1.2314929675,-4.48985390
 2,1.9277486338\C,0,0.8930270662,-3.2857275775,3.2720345597\C,0,-0.2528
 511521,-2.3197776887,2.9790597568\C,0,-0.4145277827,-3.7232948811,-0.8
 783170229\O,0,-0.9986881322,-2.8082068462,-0.343288545\O,0,-0.84299466
 6,-4.9995962552,-0.8497731656\H,0,0.0219181811,-0.6668391537,-0.207294
 5357\H,0,0.4255497701,1.0484491239,0.0171512681\H,0,1.5136968849,-0.19
 80970363,0.6350342362\H,0,0.9405328715,0.4526745049,-2.3144561416\H,0,
 2.455051963,0.7327418458,-1.4774319301\H,0,2.7531526103,-1.2083058288,
 -2.8430770882\H,0,2.760719326,-1.7214316866,-1.1686641385\H,0,0.407895
 7767,-1.1349252001,-3.8063176848\H,0,0.869825446,-4.3602995953,-2.4262
 797533\H,0,2.0240613361,-5.1350647797,-0.5833581065\H,0,3.022503452,-3
 .8424507087,-1.1959652065\H,0,3.1021081754,-3.2210234549,1.0531001789\
 H,0,1.5540304504,-2.4404974876,0.6966842988\H,0,0.6630105117,-3.906037
 5987,4.1445678262\H,0,1.8219033148,-2.7500724108,3.4995961147\H,0,-0.0
 494825162,-1.6981780906,2.1035651549\H,0,-1.1803008723,-2.8637286961,2
 .7803455482\H,0,-0.4127135051,-1.6554517247,3.8375085026\H,0,-1.635261
 7135,-5.0110204918,-0.2812416125\\Version=ES64L-G16RevA.03\State=2-A\H
 F=-1071.4212548\S2=0.750061\S2-1=0.\S2A=0.75\RMSD=9.348e-12\Dipole=-2.
 644653,-1.4564004,1.0875731\Quadrupole=-2.9222406,6.8482645,-3.9260239
 ,-5.497469,-2.7975244,1.5884885\PG=C01 [X(C10H19N1O3S1)]\\@


 TO ERR IS HUMAN - AND TO BLAME IT ON A COMPUTER IS EVEN MORE SO.
 Job cpu time:       0 days  1 hours 24 minutes 36.1 seconds.
 Elapsed time:       0 days  0 hours 21 minutes 42.4 seconds.
 File lengths (MBytes):  RWF=    268 Int=      0 D2E=      0 Chk=     28 Scr=      8
 Normal termination of Gaussian 16 at Thu Dec 10 17:00:05 2020.
