 Entering Gaussian System, Link 0=g16
 Initial command:
 /apps/brussel/CO7/skylake/software/Gaussian/G16.A.03-intel-2017b/g16/l1.exe "/scratch/brussel/102/vsc10255/3549904[6439].master01.hydra.brussel.vsc/Gau-216448.inp" -scrdir="/scratch/brussel/102/vsc10255/3549904[6439].master01.hydra.brussel.vsc/"
 Entering Link 1 = /apps/brussel/CO7/skylake/software/Gaussian/G16.A.03-intel-2017b/g16/l1.exe.bin PID=    216449.
  
 Copyright (c) 1988,1990,1992,1993,1995,1998,2003,2009,2016,
            Gaussian, Inc.  All Rights Reserved.
  
 This is part of the Gaussian(R) 16 program.  It is based on
 the Gaussian(R) 09 system (copyright 2009, Gaussian, Inc.),
 the Gaussian(R) 03 system (copyright 2003, Gaussian, Inc.),
 the Gaussian(R) 98 system (copyright 1998, Gaussian, Inc.),
 the Gaussian(R) 94 system (copyright 1995, Gaussian, Inc.),
 the Gaussian 92(TM) system (copyright 1992, Gaussian, Inc.),
 the Gaussian 90(TM) system (copyright 1990, Gaussian, Inc.),
 the Gaussian 88(TM) system (copyright 1988, Gaussian, Inc.),
 the Gaussian 86(TM) system (copyright 1986, Carnegie Mellon
 University), and the Gaussian 82(TM) system (copyright 1983,
 Carnegie Mellon University). Gaussian is a federally registered
 trademark of Gaussian, Inc.
  
 This software contains proprietary and confidential information,
 including trade secrets, belonging to Gaussian, Inc.
  
 This software is provided under written license and may be
 used, copied, transmitted, or stored only in accord with that
 written license.
  
 The following legend is applicable only to US Government
 contracts under FAR:
  
                    RESTRICTED RIGHTS LEGEND
  
 Use, reproduction and disclosure by the US Government is
 subject to restrictions as set forth in subparagraphs (a)
 and (c) of the Commercial Computer Software - Restricted
 Rights clause in FAR 52.227-19.
  
 Gaussian, Inc.
 340 Quinnipiac St., Bldg. 40, Wallingford CT 06492
  
  
 ---------------------------------------------------------------
 Warning -- This program may not be used in any manner that
 competes with the business of Gaussian, Inc. or will provide
 assistance to any competitor of Gaussian, Inc.  The licensee
 of this program is prohibited from giving any competitor of
 Gaussian, Inc. access to this program.  By using this program,
 the user acknowledges that Gaussian, Inc. is engaged in the
 business of creating and licensing software in the field of
 computational chemistry and represents and warrants to the
 licensee that it is not a competitor of Gaussian, Inc. and that
 it will not use this program in any manner prohibited above.
 ---------------------------------------------------------------
  

 Cite this work as:
 Gaussian 16, Revision A.03,
 M. J. Frisch, G. W. Trucks, H. B. Schlegel, G. E. Scuseria, 
 M. A. Robb, J. R. Cheeseman, G. Scalmani, V. Barone, 
 G. A. Petersson, H. Nakatsuji, X. Li, M. Caricato, A. V. Marenich, 
 J. Bloino, B. G. Janesko, R. Gomperts, B. Mennucci, H. P. Hratchian, 
 J. V. Ortiz, A. F. Izmaylov, J. L. Sonnenberg, D. Williams-Young, 
 F. Ding, F. Lipparini, F. Egidi, J. Goings, B. Peng, A. Petrone, 
 T. Henderson, D. Ranasinghe, V. G. Zakrzewski, J. Gao, N. Rega, 
 G. Zheng, W. Liang, M. Hada, M. Ehara, K. Toyota, R. Fukuda, 
 J. Hasegawa, M. Ishida, T. Nakajima, Y. Honda, O. Kitao, H. Nakai, 
 T. Vreven, K. Throssell, J. A. Montgomery, Jr., J. E. Peralta, 
 F. Ogliaro, M. J. Bearpark, J. J. Heyd, E. N. Brothers, K. N. Kudin, 
 V. N. Staroverov, T. A. Keith, R. Kobayashi, J. Normand, 
 K. Raghavachari, A. P. Rendell, J. C. Burant, S. S. Iyengar, 
 J. Tomasi, M. Cossi, J. M. Millam, M. Klene, C. Adamo, R. Cammi, 
 J. W. Ochterski, R. L. Martin, K. Morokuma, O. Farkas, 
 J. B. Foresman, and D. J. Fox, Gaussian, Inc., Wallingford CT, 2016.
 
 ******************************************
 Gaussian 16:  ES64L-G16RevA.03 25-Dec-2016
                10-Dec-2020 
 ******************************************
 %chk=JID_6439.chk
 %mem=8GB
 %nprocshared=4
 Will use up to    4 processors via shared memory.
 -----------------------------------------------------------
 # opt freq B3LYP/6-31G(d) empiricaldispersion=gd3bj scf=xqc
 -----------------------------------------------------------
 1/18=20,19=15,26=3,38=1/1,3;
 2/9=110,12=2,17=6,18=5,40=1/2;
 3/5=1,6=6,7=1,11=2,25=1,30=1,71=1,74=-5,124=41/1,2,3;
 4//1;
 5/5=2,8=3,13=1,38=5/2,8;
 6/7=2,8=2,9=2,10=2,28=1/1;
 7//1,2,3,16;
 1/18=20,19=15,26=3/3(2);
 2/9=110/2;
 99//99;
 2/9=110/2;
 3/5=1,6=6,7=1,11=2,25=1,30=1,71=1,74=-5,124=41/1,2,3;
 4/5=5,16=3,69=1/1;
 5/5=2,8=3,13=1,38=5/2,8;
 7//1,2,3,16;
 1/18=20,19=15,26=3/3(-5);
 2/9=110/2;
 6/7=2,8=2,9=2,10=2,19=2,28=1/1;
 99/9=1/99;
 -------------------------------
 CID_150283008_JID_6439_neutraal
 -------------------------------
 Symbolic Z-matrix:
 Charge =  0 Multiplicity = 1
 C                     0.99432   0.09893  -0.01347 
 C                     0.51858   1.41514   0.58654 
 C                     0.85493   2.63859  -0.28533 
 C                     0.25002   2.62388  -1.70305 
 C                    -1.25764   2.38037  -1.78598 
 N                    -1.97538   3.51551  -1.20454 
 N                    -3.09958   3.26437  -0.73593 
 N                    -4.12721   3.03019  -0.30239 
 C                     0.55633   3.96658   0.40162 
 O                     1.12699   5.00941   0.10451 
 O                    -0.41996   3.84776   1.33919 
 C                    -0.84267   5.05107   2.00327 
 C                    -0.56533   4.96526   3.52007 
 C                     0.94457   4.83958   3.78126 
 C                    -1.08964   6.24318   4.19472 
 C                    -1.27888   3.74452   4.12532 
 H                     0.47016  -0.13191  -0.94525 
 H                     0.80456  -0.72181   0.68575 
 H                     2.06921   0.12662  -0.21803 
 H                    -0.55845   1.35264   0.78023 
 H                     0.99407   1.53716   1.56855 
 H                     1.94904   2.63771  -0.40097 
 H                     0.48291   3.57226  -2.20525 
 H                     0.75135   1.84213  -2.28714 
 H                    -1.54407   2.29106  -2.8406 
 H                    -1.528     1.43572  -1.30081 
 H                    -0.37817   5.9483    1.57755 
 H                    -1.92072   5.14231   1.82449 
 H                     1.49191   5.67977   3.33947 
 H                     1.15928   4.83143   4.85598 
 H                     1.35193   3.91489   3.35837 
 H                    -2.16723   6.36134   4.03432 
 H                    -0.91464   6.22194   5.27625 
 H                    -0.5929    7.13426   3.79463 
 H                    -2.35807   3.78754   3.94026 
 H                    -0.90415   2.8065    3.7012 
 H                    -1.12929   3.69808   5.21002 
 

 GradGradGradGradGradGradGradGradGradGradGradGradGradGradGradGradGradGrad
 Berny optimization.
 Initialization pass.
                           ----------------------------
                           !    Initial Parameters    !
                           ! (Angstroms and Degrees)  !
 --------------------------                            --------------------------
 ! Name  Definition              Value          Derivative Info.                !
 --------------------------------------------------------------------------------
 ! R1    R(1,2)                  1.5227         estimate D2E/DX2                !
 ! R2    R(1,17)                 1.0937         estimate D2E/DX2                !
 ! R3    R(1,18)                 1.0948         estimate D2E/DX2                !
 ! R4    R(1,19)                 1.0945         estimate D2E/DX2                !
 ! R5    R(2,3)                  1.5395         estimate D2E/DX2                !
 ! R6    R(2,20)                 1.0961         estimate D2E/DX2                !
 ! R7    R(2,21)                 1.0979         estimate D2E/DX2                !
 ! R8    R(3,4)                  1.5414         estimate D2E/DX2                !
 ! R9    R(3,9)                  1.5247         estimate D2E/DX2                !
 ! R10   R(3,22)                 1.1002         estimate D2E/DX2                !
 ! R11   R(4,5)                  1.5294         estimate D2E/DX2                !
 ! R12   R(4,23)                 1.0981         estimate D2E/DX2                !
 ! R13   R(4,24)                 1.0971         estimate D2E/DX2                !
 ! R14   R(5,6)                  1.4635         estimate D2E/DX2                !
 ! R15   R(5,25)                 1.0965         estimate D2E/DX2                !
 ! R16   R(5,26)                 1.0958         estimate D2E/DX2                !
 ! R17   R(6,7)                  1.2436         estimate D2E/DX2                !
 ! R18   R(7,8)                  1.1397         estimate D2E/DX2                !
 ! R19   R(9,10)                 1.2253         estimate D2E/DX2                !
 ! R20   R(9,11)                 1.3588         estimate D2E/DX2                !
 ! R21   R(11,12)                1.4379         estimate D2E/DX2                !
 ! R22   R(12,13)                1.5443         estimate D2E/DX2                !
 ! R23   R(12,27)                1.0964         estimate D2E/DX2                !
 ! R24   R(12,28)                1.0966         estimate D2E/DX2                !
 ! R25   R(13,14)                1.5375         estimate D2E/DX2                !
 ! R26   R(13,15)                1.5372         estimate D2E/DX2                !
 ! R27   R(13,16)                1.5381         estimate D2E/DX2                !
 ! R28   R(14,29)                1.0958         estimate D2E/DX2                !
 ! R29   R(14,30)                1.096          estimate D2E/DX2                !
 ! R30   R(14,31)                1.0954         estimate D2E/DX2                !
 ! R31   R(15,32)                1.0959         estimate D2E/DX2                !
 ! R32   R(15,33)                1.0958         estimate D2E/DX2                !
 ! R33   R(15,34)                1.0958         estimate D2E/DX2                !
 ! R34   R(16,35)                1.0958         estimate D2E/DX2                !
 ! R35   R(16,36)                1.0955         estimate D2E/DX2                !
 ! R36   R(16,37)                1.096          estimate D2E/DX2                !
 ! A1    A(2,1,17)             111.6165         estimate D2E/DX2                !
 ! A2    A(2,1,18)             110.0103         estimate D2E/DX2                !
 ! A3    A(2,1,19)             111.0137         estimate D2E/DX2                !
 ! A4    A(17,1,18)            107.6272         estimate D2E/DX2                !
 ! A5    A(17,1,19)            108.4671         estimate D2E/DX2                !
 ! A6    A(18,1,19)            107.9721         estimate D2E/DX2                !
 ! A7    A(1,2,3)              113.2972         estimate D2E/DX2                !
 ! A8    A(1,2,20)             109.1069         estimate D2E/DX2                !
 ! A9    A(1,2,21)             108.2525         estimate D2E/DX2                !
 ! A10   A(3,2,20)             111.1043         estimate D2E/DX2                !
 ! A11   A(3,2,21)             108.8815         estimate D2E/DX2                !
 ! A12   A(20,2,21)            105.8933         estimate D2E/DX2                !
 ! A13   A(2,3,4)              115.312          estimate D2E/DX2                !
 ! A14   A(2,3,9)              113.2181         estimate D2E/DX2                !
 ! A15   A(2,3,22)             106.031          estimate D2E/DX2                !
 ! A16   A(4,3,9)              110.2336         estimate D2E/DX2                !
 ! A17   A(4,3,22)             107.0722         estimate D2E/DX2                !
 ! A18   A(9,3,22)             104.0527         estimate D2E/DX2                !
 ! A19   A(3,4,5)              115.9909         estimate D2E/DX2                !
 ! A20   A(3,4,23)             109.2172         estimate D2E/DX2                !
 ! A21   A(3,4,24)             108.4898         estimate D2E/DX2                !
 ! A22   A(5,4,23)             108.7697         estimate D2E/DX2                !
 ! A23   A(5,4,24)             107.9467         estimate D2E/DX2                !
 ! A24   A(23,4,24)            105.9623         estimate D2E/DX2                !
 ! A25   A(4,5,6)              109.7801         estimate D2E/DX2                !
 ! A26   A(4,5,25)             108.822          estimate D2E/DX2                !
 ! A27   A(4,5,26)             110.882          estimate D2E/DX2                !
 ! A28   A(6,5,25)             108.4936         estimate D2E/DX2                !
 ! A29   A(6,5,26)             111.8228         estimate D2E/DX2                !
 ! A30   A(25,5,26)            106.9285         estimate D2E/DX2                !
 ! A31   A(5,6,7)              115.876          estimate D2E/DX2                !
 ! A32   A(3,9,10)             122.7395         estimate D2E/DX2                !
 ! A33   A(3,9,11)             112.0513         estimate D2E/DX2                !
 ! A34   A(10,9,11)            125.1944         estimate D2E/DX2                !
 ! A35   A(9,11,12)            117.1748         estimate D2E/DX2                !
 ! A36   A(11,12,13)           110.7509         estimate D2E/DX2                !
 ! A37   A(11,12,27)           112.3933         estimate D2E/DX2                !
 ! A38   A(11,12,28)           106.4596         estimate D2E/DX2                !
 ! A39   A(13,12,27)           110.5341         estimate D2E/DX2                !
 ! A40   A(13,12,28)           109.9563         estimate D2E/DX2                !
 ! A41   A(27,12,28)           106.5658         estimate D2E/DX2                !
 ! A42   A(12,13,14)           110.3505         estimate D2E/DX2                !
 ! A43   A(12,13,15)           108.8809         estimate D2E/DX2                !
 ! A44   A(12,13,16)           110.3211         estimate D2E/DX2                !
 ! A45   A(14,13,15)           109.1688         estimate D2E/DX2                !
 ! A46   A(14,13,16)           108.8974         estimate D2E/DX2                !
 ! A47   A(15,13,16)           109.1995         estimate D2E/DX2                !
 ! A48   A(13,14,29)           111.0621         estimate D2E/DX2                !
 ! A49   A(13,14,30)           111.0748         estimate D2E/DX2                !
 ! A50   A(13,14,31)           111.6321         estimate D2E/DX2                !
 ! A51   A(29,14,30)           107.6502         estimate D2E/DX2                !
 ! A52   A(29,14,31)           107.8105         estimate D2E/DX2                !
 ! A53   A(30,14,31)           107.4243         estimate D2E/DX2                !
 ! A54   A(13,15,32)           111.1484         estimate D2E/DX2                !
 ! A55   A(13,15,33)           111.2581         estimate D2E/DX2                !
 ! A56   A(13,15,34)           111.1702         estimate D2E/DX2                !
 ! A57   A(32,15,33)           107.6735         estimate D2E/DX2                !
 ! A58   A(32,15,34)           107.7358         estimate D2E/DX2                !
 ! A59   A(33,15,34)           107.6809         estimate D2E/DX2                !
 ! A60   A(13,16,35)           111.056          estimate D2E/DX2                !
 ! A61   A(13,16,36)           111.6255         estimate D2E/DX2                !
 ! A62   A(13,16,37)           111.0867         estimate D2E/DX2                !
 ! A63   A(35,16,36)           107.7646         estimate D2E/DX2                !
 ! A64   A(35,16,37)           107.6523         estimate D2E/DX2                !
 ! A65   A(36,16,37)           107.4692         estimate D2E/DX2                !
 ! A66   L(6,7,8,12,-1)        179.8662         estimate D2E/DX2                !
 ! A67   L(6,7,8,12,-2)        180.3063         estimate D2E/DX2                !
 ! D1    D(17,1,2,3)           -65.3786         estimate D2E/DX2                !
 ! D2    D(17,1,2,20)           58.9584         estimate D2E/DX2                !
 ! D3    D(17,1,2,21)          173.756          estimate D2E/DX2                !
 ! D4    D(18,1,2,3)           175.2173         estimate D2E/DX2                !
 ! D5    D(18,1,2,20)          -60.4457         estimate D2E/DX2                !
 ! D6    D(18,1,2,21)           54.3519         estimate D2E/DX2                !
 ! D7    D(19,1,2,3)            55.7672         estimate D2E/DX2                !
 ! D8    D(19,1,2,20)         -179.8958         estimate D2E/DX2                !
 ! D9    D(19,1,2,21)          -65.0982         estimate D2E/DX2                !
 ! D10   D(1,2,3,4)             59.8404         estimate D2E/DX2                !
 ! D11   D(1,2,3,9)           -171.9034         estimate D2E/DX2                !
 ! D12   D(1,2,3,22)           -58.4402         estimate D2E/DX2                !
 ! D13   D(20,2,3,4)           -63.4039         estimate D2E/DX2                !
 ! D14   D(20,2,3,9)            64.8523         estimate D2E/DX2                !
 ! D15   D(20,2,3,22)          178.3155         estimate D2E/DX2                !
 ! D16   D(21,2,3,4)          -179.6502         estimate D2E/DX2                !
 ! D17   D(21,2,3,9)           -51.3941         estimate D2E/DX2                !
 ! D18   D(21,2,3,22)           62.0691         estimate D2E/DX2                !
 ! D19   D(2,3,4,5)             52.1535         estimate D2E/DX2                !
 ! D20   D(2,3,4,23)           175.4544         estimate D2E/DX2                !
 ! D21   D(2,3,4,24)           -69.4805         estimate D2E/DX2                !
 ! D22   D(9,3,4,5)            -77.572          estimate D2E/DX2                !
 ! D23   D(9,3,4,23)            45.7289         estimate D2E/DX2                !
 ! D24   D(9,3,4,24)           160.794          estimate D2E/DX2                !
 ! D25   D(22,3,4,5)           169.8519         estimate D2E/DX2                !
 ! D26   D(22,3,4,23)          -66.8472         estimate D2E/DX2                !
 ! D27   D(22,3,4,24)           48.2178         estimate D2E/DX2                !
 ! D28   D(2,3,9,10)           155.2836         estimate D2E/DX2                !
 ! D29   D(2,3,9,11)           -26.0508         estimate D2E/DX2                !
 ! D30   D(4,3,9,10)           -73.8771         estimate D2E/DX2                !
 ! D31   D(4,3,9,11)           104.7885         estimate D2E/DX2                !
 ! D32   D(22,3,9,10)           40.6295         estimate D2E/DX2                !
 ! D33   D(22,3,9,11)         -140.7048         estimate D2E/DX2                !
 ! D34   D(3,4,5,6)             67.1353         estimate D2E/DX2                !
 ! D35   D(3,4,5,25)          -174.2633         estimate D2E/DX2                !
 ! D36   D(3,4,5,26)           -56.9217         estimate D2E/DX2                !
 ! D37   D(23,4,5,6)           -56.399          estimate D2E/DX2                !
 ! D38   D(23,4,5,25)           62.2024         estimate D2E/DX2                !
 ! D39   D(23,4,5,26)          179.544          estimate D2E/DX2                !
 ! D40   D(24,4,5,6)          -170.9421         estimate D2E/DX2                !
 ! D41   D(24,4,5,25)          -52.3407         estimate D2E/DX2                !
 ! D42   D(24,4,5,26)           65.0009         estimate D2E/DX2                !
 ! D43   D(4,5,6,7)           -153.1164         estimate D2E/DX2                !
 ! D44   D(25,5,6,7)            88.0796         estimate D2E/DX2                !
 ! D45   D(26,5,6,7)           -29.6092         estimate D2E/DX2                !
 ! D46   D(3,9,11,12)         -176.5828         estimate D2E/DX2                !
 ! D47   D(10,9,11,12)           2.0437         estimate D2E/DX2                !
 ! D48   D(9,11,12,13)        -118.0905         estimate D2E/DX2                !
 ! D49   D(9,11,12,27)           6.0901         estimate D2E/DX2                !
 ! D50   D(9,11,12,28)         122.4035         estimate D2E/DX2                !
 ! D51   D(11,12,13,14)         62.7193         estimate D2E/DX2                !
 ! D52   D(11,12,13,15)       -177.4802         estimate D2E/DX2                !
 ! D53   D(11,12,13,16)        -57.66           estimate D2E/DX2                !
 ! D54   D(27,12,13,14)        -62.5166         estimate D2E/DX2                !
 ! D55   D(27,12,13,15)         57.2838         estimate D2E/DX2                !
 ! D56   D(27,12,13,16)        177.1041         estimate D2E/DX2                !
 ! D57   D(28,12,13,14)       -179.8984         estimate D2E/DX2                !
 ! D58   D(28,12,13,15)        -60.0979         estimate D2E/DX2                !
 ! D59   D(28,12,13,16)         59.7223         estimate D2E/DX2                !
 ! D60   D(12,13,14,29)         57.2071         estimate D2E/DX2                !
 ! D61   D(12,13,14,30)        176.9829         estimate D2E/DX2                !
 ! D62   D(12,13,14,31)        -63.1459         estimate D2E/DX2                !
 ! D63   D(15,13,14,29)        -62.4194         estimate D2E/DX2                !
 ! D64   D(15,13,14,30)         57.3564         estimate D2E/DX2                !
 ! D65   D(15,13,14,31)        177.2276         estimate D2E/DX2                !
 ! D66   D(16,13,14,29)        178.4371         estimate D2E/DX2                !
 ! D67   D(16,13,14,30)        -61.787          estimate D2E/DX2                !
 ! D68   D(16,13,14,31)         58.0841         estimate D2E/DX2                !
 ! D69   D(12,13,15,32)         59.8603         estimate D2E/DX2                !
 ! D70   D(12,13,15,33)        179.8457         estimate D2E/DX2                !
 ! D71   D(12,13,15,34)        -60.1449         estimate D2E/DX2                !
 ! D72   D(14,13,15,32)       -179.6089         estimate D2E/DX2                !
 ! D73   D(14,13,15,33)        -59.6235         estimate D2E/DX2                !
 ! D74   D(14,13,15,34)         60.3859         estimate D2E/DX2                !
 ! D75   D(16,13,15,32)        -60.6532         estimate D2E/DX2                !
 ! D76   D(16,13,15,33)         59.3322         estimate D2E/DX2                !
 ! D77   D(16,13,15,34)        179.3416         estimate D2E/DX2                !
 ! D78   D(12,13,16,35)        -57.5408         estimate D2E/DX2                !
 ! D79   D(12,13,16,36)         62.7452         estimate D2E/DX2                !
 ! D80   D(12,13,16,37)       -177.3231         estimate D2E/DX2                !
 ! D81   D(14,13,16,35)       -178.7888         estimate D2E/DX2                !
 ! D82   D(14,13,16,36)        -58.5028         estimate D2E/DX2                !
 ! D83   D(14,13,16,37)         61.429          estimate D2E/DX2                !
 ! D84   D(15,13,16,35)         62.0869         estimate D2E/DX2                !
 ! D85   D(15,13,16,36)       -177.6271         estimate D2E/DX2                !
 ! D86   D(15,13,16,37)        -57.6954         estimate D2E/DX2                !
 --------------------------------------------------------------------------------
 Trust Radius=3.00D-01 FncErr=1.00D-07 GrdErr=1.00D-06 EigMax=2.50D+02 EigMin=1.00D-04
 Number of steps in this run=    199 maximum allowed number of steps=    222.
 GradGradGradGradGradGradGradGradGradGradGradGradGradGradGradGradGradGrad

                          Input orientation:                          
 ---------------------------------------------------------------------
 Center     Atomic      Atomic             Coordinates (Angstroms)
 Number     Number       Type             X           Y           Z
 ---------------------------------------------------------------------
      1          6           0        0.994320    0.098930   -0.013470
      2          6           0        0.518580    1.415140    0.586540
      3          6           0        0.854930    2.638590   -0.285330
      4          6           0        0.250020    2.623880   -1.703050
      5          6           0       -1.257640    2.380370   -1.785980
      6          7           0       -1.975380    3.515510   -1.204540
      7          7           0       -3.099580    3.264370   -0.735930
      8          7           0       -4.127210    3.030190   -0.302390
      9          6           0        0.556330    3.966580    0.401620
     10          8           0        1.126990    5.009410    0.104510
     11          8           0       -0.419960    3.847760    1.339190
     12          6           0       -0.842670    5.051070    2.003270
     13          6           0       -0.565330    4.965260    3.520070
     14          6           0        0.944570    4.839580    3.781260
     15          6           0       -1.089640    6.243180    4.194720
     16          6           0       -1.278880    3.744520    4.125320
     17          1           0        0.470160   -0.131910   -0.945250
     18          1           0        0.804560   -0.721810    0.685750
     19          1           0        2.069210    0.126620   -0.218030
     20          1           0       -0.558450    1.352640    0.780230
     21          1           0        0.994070    1.537160    1.568550
     22          1           0        1.949040    2.637710   -0.400970
     23          1           0        0.482910    3.572260   -2.205250
     24          1           0        0.751350    1.842130   -2.287140
     25          1           0       -1.544070    2.291060   -2.840600
     26          1           0       -1.528000    1.435720   -1.300810
     27          1           0       -0.378170    5.948300    1.577550
     28          1           0       -1.920720    5.142310    1.824490
     29          1           0        1.491910    5.679770    3.339470
     30          1           0        1.159280    4.831430    4.855980
     31          1           0        1.351930    3.914890    3.358370
     32          1           0       -2.167230    6.361340    4.034320
     33          1           0       -0.914640    6.221940    5.276250
     34          1           0       -0.592900    7.134260    3.794630
     35          1           0       -2.358070    3.787540    3.940260
     36          1           0       -0.904150    2.806500    3.701200
     37          1           0       -1.129290    3.698080    5.210020
 ---------------------------------------------------------------------
                    Distance matrix (angstroms):
                    1          2          3          4          5
     1  C    0.000000
     2  C    1.522744   0.000000
     3  C    2.557970   1.539519   0.000000
     4  C    3.127944   2.602960   1.541448   0.000000
     5  C    3.663070   3.116966   2.604147   1.529449   0.000000
     6  N    4.680896   3.720129   3.102352   2.448657   1.463477
     7  N    5.225129   4.273132   4.028994   3.544766   2.297130
     8  N    5.908116   4.998194   4.997535   4.613792   3.295108
     9  C    3.914441   2.558411   1.524670   2.515215   3.254557
    10  O    4.913688   3.677131   2.418011   3.118830   4.021475
    11  O    4.228901   2.713850   2.393011   3.346936   3.552693
    12  C    5.653801   4.132809   3.733577   4.563116   4.654380
    13  C    6.212856   4.731153   4.680983   5.781681   5.942652
    14  C    6.072579   4.702605   4.624883   5.955618   6.472372
    15  C    7.733276   6.238213   6.070030   7.048242   7.121678
    16  C    5.965513   4.602156   5.022953   6.128888   6.066698
    17  H    1.093730   2.177634   2.873885   2.866549   3.162858
    18  H    1.094775   2.158282   3.498260   4.148195   4.470530
    19  H    1.094532   2.170730   2.790878   3.427980   4.313443
    20  H    2.147753   1.096091   2.187859   2.904540   2.851408
    21  H    2.138058   1.097872   2.160875   3.526746   4.127235
    22  H    2.739900   2.125105   1.100205   2.140624   3.502467
    23  H    4.138775   3.528248   2.167079   1.098120   2.150791
    24  H    2.875301   2.914539   2.156924   1.097099   2.139370
    25  H    4.386516   4.094759   3.522128   2.150244   1.096468
    26  H    3.131509   2.784062   2.855950   2.175977   1.095832
    27  H    6.215320   4.726077   3.993124   4.712614   4.981659
    28  H    6.108292   4.623257   4.292341   4.847488   4.593853
    29  H    6.529592   5.168468   4.774274   6.025592   6.687025
    30  H    6.792298   5.505420   5.597700   6.980036   7.480965
    31  H    5.104776   3.824430   3.892621   5.338435   5.968999
    32  H    8.099246   6.600429   6.453812   7.261482   7.109949
    33  H    8.313634   6.866792   6.848573   7.938079   8.046763
    34  H    8.155781   6.650982   6.241261   7.160903   7.361016
    35  H    6.362102   5.015061   5.431304   6.324807   5.998408
    36  H    4.973318   3.696099   4.360617   5.529139   5.515042
    37  H    6.689428   5.413304   5.937888   7.130704   7.120172
                    6          7          8          9         10
     6  N    0.000000
     7  N    1.243580   0.000000
     8  N    2.383229   1.139658   0.000000
     9  C    3.031958   3.892659   4.827836   0.000000
    10  O    3.683755   4.649236   5.629343   1.225325   0.000000
    11  O    3.000047   3.439016   4.136050   1.358785   2.294977
    12  C    3.732428   3.973557   4.493131   2.387175   2.736163
    13  C    5.139256   5.237269   5.571596   3.461244   3.812079
    14  C    5.927687   6.264299   6.758183   3.512097   3.685188
    15  C    6.113651   6.101187   6.306674   4.720141   4.813050
    16  C    5.380053   5.213180   5.312990   4.157313   4.853357
    17  H    4.399042   4.931691   5.616757   4.314986   5.288345
    18  H    5.408895   5.757874   6.275052   4.703546   5.769635
    19  H    5.368099   6.068780   6.843497   4.173496   4.983317
    20  H    3.259603   3.522896   4.089289   2.866838   4.082802
    21  H    4.519019   5.005183   5.653058   2.730462   3.770623
    22  H    4.100894   5.098379   6.089710   2.085590   2.560515
    23  H    2.654775   3.884319   5.016764   2.637546   2.795573
    24  H    3.377466   4.388471   5.399173   3.432310   3.986572
    25  H    2.088540   2.792236   3.696138   4.210824   4.816395
    26  H    2.129541   2.476472   3.208593   3.694313   4.668528
    27  H    4.026111   4.467857   5.109290   2.486627   2.305833
    28  H    3.438675   3.387052   3.721998   3.089122   3.502075
    29  H    6.111804   6.597335   7.201245   3.527222   3.323780
    30  H    6.948931   7.201599   7.602646   4.577427   4.754912
    31  H    5.661329   6.082961   6.648672   3.062356   3.440375
    32  H    5.964999   5.763314   5.809056   5.133144   5.303113
    33  H    7.102857   7.047517   7.185339   5.568880   5.690815
    34  H    6.324421   6.464168   6.791194   4.781992   4.592384
    35  H    5.166180   4.763433   4.658703   4.587783   5.324621
    36  H    5.071145   4.971688   5.144598   3.790253   4.681295
    37  H    6.472695   6.278891   6.310330   5.102364   5.733814
                   11         12         13         14         15
    11  O    0.000000
    12  C    1.437929   0.000000
    13  C    2.454827   1.544333   0.000000
    14  C    2.968056   2.529862   1.537470   0.000000
    15  C    3.786893   2.506905   1.537249   2.505804   0.000000
    16  C    2.917349   2.529911   1.538079   2.502252   2.506777
    17  H    4.674265   6.105782   6.855105   6.876094   8.336309
    18  H    4.775710   6.146167   6.500210   6.366384   8.025706
    19  H    4.740019   6.137054   6.657825   6.282605   8.176980
    20  H    2.560711   3.905764   4.534070   4.839835   5.988179
    21  H    2.718632   3.988754   4.241701   3.975489   5.777996
    22  H    3.178764   4.404353   5.207120   4.832002   6.584327
    23  H    3.667987   4.653567   5.984860   6.136573   7.111002
    24  H    4.306366   5.589795   6.723933   6.771080   8.048167
    25  H    4.599737   5.618958   6.969032   7.519130   8.082171
    26  H    3.743700   4.945440   6.051882   6.597522   7.314689
    27  H    2.114434   1.096366   2.185127   2.799150   2.728135
    28  H    2.040504   1.096576   2.177939   3.482884   2.742371
    29  H    3.318528   2.762419   2.185264   1.095755   2.777280
    30  H    3.978620   3.491991   2.185600   1.095988   2.736411
    31  H    2.687227   2.818416   2.192102   1.095367   3.475871
    32  H    4.078574   2.756162   2.186224   3.473196   1.095851
    33  H    4.624055   3.476854   2.187563   2.757277   1.095803
    34  H    4.106114   2.758811   2.186482   2.762164   1.095831
    35  H    3.244297   2.764937   2.185749   3.469798   2.775578
    36  H    2.626357   2.815109   2.192681   2.749107   3.476886
    37  H    3.938131   3.492274   2.186259   2.765009   2.740427
                   16         17         18         19         20
    16  C    0.000000
    17  H    6.617895   0.000000
    18  H    6.009947   1.766343   0.000000
    19  H    6.569901   1.775570   1.770873   0.000000
    20  H    4.174894   2.497841   2.483962   3.066634   0.000000
    21  H    4.071340   3.062592   2.432734   2.517423   1.750947
    22  H    5.668492   3.186553   3.711761   2.520611   3.055183
    23  H    6.573408   3.912625   5.186557   4.282269   3.863190
    24  H    6.990033   2.403450   3.926155   2.993484   3.371044
    25  H    7.120879   3.676990   5.198903   4.961700   3.868138
    26  H    5.902161   2.564475   3.747291   3.978200   2.297315
    27  H    3.486984   6.637254   6.832607   6.565496   4.667795
    28  H    2.767597   6.419125   6.565956   6.726706   4.160271
    29  H    3.469875   7.292354   6.963828   6.620163   5.429341
    30  H    2.767645   7.665762   6.953785   6.979168   5.627105
    31  H    2.745615   5.972876   5.379730   5.258908   4.106274
    32  H    2.764994   8.597339   8.379467   8.654573   6.185818
    33  H    2.755888   8.999786   8.499647   8.731747   6.637104
    34  H    3.474228   8.740354   8.563636   8.502664   6.520347
    35  H    1.095787   6.872349   6.397523   7.091863   4.376432
    36  H    1.095528   5.666787   4.945867   5.602052   3.281049
    37  H    1.095951   7.423908   6.613942   7.242200   5.044798
                   21         22         23         24         25
    21  H    0.000000
    22  H    2.449936   0.000000
    23  H    4.317926   2.505663   0.000000
    24  H    3.875341   2.371718   1.752745   0.000000
    25  H    5.143066   4.274784   2.480684   2.403499   0.000000
    26  H    3.821564   3.787387   3.070273   2.516635   1.761482
    27  H    4.619662   4.504493   4.549352   5.750850   5.852758
    28  H    4.643125   5.118665   4.947858   5.910723   5.480379
    29  H    4.532684   4.842932   6.016943   6.850887   7.674229
    30  H    4.656899   5.750796   7.204440   7.754127   8.543941
    31  H    2.997519   4.015018   5.641494   6.043907   7.032131
    32  H    6.272683   7.104991   7.330378   8.300736   8.013740
    33  H    6.271952   7.299191   8.058957   8.897366   9.040534
    34  H    6.229080   6.654583   7.060012   8.173223   8.269679
    35  H    4.682527   6.222506   6.773832   7.227283   6.991574
    36  H    3.124525   4.999698   6.115266   6.287361   6.593203
    37  H    4.736933   6.487196   7.589549   7.949136   8.183167
                   26         27         28         29         30
    26  H    0.000000
    27  H    5.474527   0.000000
    28  H    4.864210   1.757857   0.000000
    29  H    6.975960   2.583345   3.772277   0.000000
    30  H    7.527176   3.789361   4.332779   1.769216   0.000000
    31  H    6.012341   3.209256   3.817013   1.770523   1.766351
    32  H    7.289304   3.067093   2.535774   3.786378   3.752522
    33  H    8.157318   3.747407   3.753991   3.136327   2.532052
    34  H    7.701382   2.523500   3.100391   2.582469   3.082146
    35  H    5.804213   3.764477   2.550129   4.331724   3.781534
    36  H    5.223823   3.828505   3.164090   3.758674   3.113134
    37  H    6.904212   4.338492   3.764834   3.781103   2.578251
                   31         32         33         34         35
    31  H    0.000000
    32  H    4.338953   0.000000
    33  H    3.760064   1.769408   0.000000
    34  H    3.786427   1.770133   1.769475   0.000000
    35  H    3.757514   2.582579   3.129643   3.786498   0.000000
    36  H    2.536919   3.787245   3.761133   4.339944   1.770162
    37  H    3.103557   3.090719   2.533837   3.754780   1.769235
                   36         37
    36  H    0.000000
    37  H    1.766958   0.000000
 Stoichiometry    C11H21N3O2
 Framework group  C1[X(C11H21N3O2)]
 Deg. of freedom   105
 Full point group                 C1      NOp   1
 Largest Abelian subgroup         C1      NOp   1
 Largest concise Abelian subgroup C1      NOp   1
                         Standard orientation:                         
 ---------------------------------------------------------------------
 Center     Atomic      Atomic             Coordinates (Angstroms)
 Number     Number       Type             X           Y           Z
 ---------------------------------------------------------------------
      1          6           0       -2.638674   -2.303004    1.656223
      2          6           0       -1.430894   -1.562338    1.098164
      3          6           0       -1.489571   -1.364321   -0.427439
      4          6           0       -2.701207   -0.562162   -0.941775
      5          6           0       -2.938312    0.794356   -0.276304
      6          7           0       -1.850179    1.711044   -0.618964
      7          7           0       -1.619721    2.612402    0.206224
      8          7           0       -1.407217    3.434075    0.966826
      9          6           0       -0.198310   -0.801078   -1.010553
     10          8           0        0.132549   -0.973992   -2.177624
     11          8           0        0.501001   -0.077819   -0.097230
     12          6           0        1.702407    0.568395   -0.551840
     13          6           0        2.934898    0.026974    0.204992
     14          6           0        3.120947   -1.472426   -0.079611
     15          6           0        4.183359    0.789195   -0.267763
     16          6           0        2.762545    0.228815    1.719997
     17          1           0       -3.558180   -1.723296    1.535010
     18          1           0       -2.502543   -2.488770    2.726499
     19          1           0       -2.770191   -3.269547    1.159737
     20          1           0       -1.327469   -0.602401    1.617049
     21          1           0       -0.529528   -2.137452    1.347375
     22          1           0       -1.561561   -2.372448   -0.862121
     23          1           0       -2.601644   -0.411750   -2.024979
     24          1           0       -3.604522   -1.169165   -0.803229
     25          1           0       -3.878412    1.213986   -0.653616
     26          1           0       -3.051011    0.683112    0.808027
     27          1           0        1.843739    0.473116   -1.634875
     28          1           0        1.576856    1.638103   -0.345830
     29          1           0        3.219722   -1.659899   -1.154681
     30          1           0        4.023264   -1.857340    0.409117
     31          1           0        2.272998   -2.061214    0.286642
     32          1           0        4.087872    1.863456   -0.073505
     33          1           0        5.083349    0.436494    0.248379
     34          1           0        4.343605    0.657486   -1.343784
     35          1           0        2.605487    1.286182    1.960949
     36          1           0        1.905558   -0.333128    2.107263
     37          1           0        3.650904   -0.108122    2.266256
 ---------------------------------------------------------------------
 Rotational constants (GHZ):           0.6379948           0.3485119           0.2901597
 Standard basis: 6-31G(d) (6D, 7F)
 There are   282 symmetry adapted cartesian basis functions of A   symmetry.
 There are   282 symmetry adapted basis functions of A   symmetry.
   282 basis functions,   532 primitive gaussians,   282 cartesian basis functions
    62 alpha electrons       62 beta electrons
       nuclear repulsion energy      1193.3225098468 Hartrees.
 NAtoms=   37 NActive=   37 NUniq=   37 SFac= 1.00D+00 NAtFMM=   60 NAOKFM=F Big=F
 Integral buffers will be    131072 words long.
 Raffenetti 2 integral format.
 Two-electron integral symmetry is turned on.
 Nuclear repulsion after empirical dispersion term =     1193.2563861122 Hartrees.
 One-electron integrals computed using PRISM.
 NBasis=   282 RedAO= T EigKep=  1.30D-03  NBF=   282
 NBsUse=   282 1.00D-06 EigRej= -1.00D+00 NBFU=   282
 ExpMin= 1.61D-01 ExpMax= 5.48D+03 ExpMxC= 8.25D+02 IAcc=3 IRadAn=         5 AccDes= 0.00D+00
 Harris functional with IExCor=  402 and IRadAn=       5 diagonalized for initial guess.
 HarFok:  IExCor=  402 AccDes= 0.00D+00 IRadAn=         5 IDoV= 1 UseB2=F ITyADJ=14
 ICtDFT=  3500011 ScaDFX=  1.000000  1.000000  1.000000  1.000000
 FoFCou: FMM=F IPFlag=           0 FMFlag=      100000 FMFlg1=           0
         NFxFlg=           0 DoJE=T BraDBF=F KetDBF=T FulRan=T
         wScrn=  0.000000 ICntrl=       500 IOpCl=  0 I1Cent=   200000004 NGrid=           0
         NMat0=    1 NMatS0=      1 NMatT0=    0 NMatD0=    1 NMtDS0=    0 NMtDT0=    0
 Petite list used in FoFCou.
 Requested convergence on RMS density matrix=1.00D-08 within  32 cycles.
 Requested convergence on MAX density matrix=1.00D-06.
 Requested convergence on             energy=1.00D-06.
 No special actions if energy rises.
 Integral accuracy reduced to 1.0D-05 until final iterations.
 Initial convergence to 1.0D-05 achieved.  Increase integral accuracy.
 SCF Done:  E(RB3LYP) =  -746.540512630     A.U. after   16 cycles
            NFock= 16  Conv=0.42D-08     -V/T= 2.0097
 QCSCF skips out because SCF is already converged.

 **********************************************************************

            Population analysis using the SCF density.

 **********************************************************************

 Orbital symmetries:
       Occupied  (A) (A) (A) (A) (A) (A) (A) (A) (A) (A) (A) (A)
                 (A) (A) (A) (A) (A) (A) (A) (A) (A) (A) (A) (A)
                 (A) (A) (A) (A) (A) (A) (A) (A) (A) (A) (A) (A)
                 (A) (A) (A) (A) (A) (A) (A) (A) (A) (A) (A) (A)
                 (A) (A) (A) (A) (A) (A) (A) (A) (A) (A) (A) (A)
                 (A) (A)
       Virtual   (A) (A) (A) (A) (A) (A) (A) (A) (A) (A) (A) (A)
                 (A) (A) (A) (A) (A) (A) (A) (A) (A) (A) (A) (A)
                 (A) (A) (A) (A) (A) (A) (A) (A) (A) (A) (A) (A)
                 (A) (A) (A) (A) (A) (A) (A) (A) (A) (A) (A) (A)
                 (A) (A) (A) (A) (A) (A) (A) (A) (A) (A) (A) (A)
                 (A) (A) (A) (A) (A) (A) (A) (A) (A) (A) (A) (A)
                 (A) (A) (A) (A) (A) (A) (A) (A) (A) (A) (A) (A)
                 (A) (A) (A) (A) (A) (A) (A) (A) (A) (A) (A) (A)
                 (A) (A) (A) (A) (A) (A) (A) (A) (A) (A) (A) (A)
                 (A) (A) (A) (A) (A) (A) (A) (A) (A) (A) (A) (A)
                 (A) (A) (A) (A) (A) (A) (A) (A) (A) (A) (A) (A)
                 (A) (A) (A) (A) (A) (A) (A) (A) (A) (A) (A) (A)
                 (A) (A) (A) (A) (A) (A) (A) (A) (A) (A) (A) (A)
                 (A) (A) (A) (A) (A) (A) (A) (A) (A) (A) (A) (A)
                 (A) (A) (A) (A) (A) (A) (A) (A) (A) (A) (A) (A)
                 (A) (A) (A) (A) (A) (A) (A) (A) (A) (A) (A) (A)
                 (A) (A) (A) (A) (A) (A) (A) (A) (A) (A) (A) (A)
                 (A) (A) (A) (A) (A) (A) (A) (A) (A) (A) (A) (A)
                 (A) (A) (A) (A)
 The electronic state is 1-A.
 Alpha  occ. eigenvalues --  -19.18903 -19.12869 -14.51553 -14.41085 -14.38195
 Alpha  occ. eigenvalues --  -10.31046 -10.24292 -10.23215 -10.20645 -10.20287
 Alpha  occ. eigenvalues --  -10.19945 -10.19024 -10.18317 -10.17572 -10.17005
 Alpha  occ. eigenvalues --  -10.16998  -1.14142  -1.09076  -1.00409  -0.98183
 Alpha  occ. eigenvalues --   -0.83375  -0.81841  -0.77536  -0.72992  -0.69711
 Alpha  occ. eigenvalues --   -0.68495  -0.68138  -0.64629  -0.60082  -0.56677
 Alpha  occ. eigenvalues --   -0.54926  -0.53427  -0.52201  -0.51094  -0.49632
 Alpha  occ. eigenvalues --   -0.48701  -0.46859  -0.46631  -0.45632  -0.44618
 Alpha  occ. eigenvalues --   -0.43422  -0.42754  -0.42251  -0.41945  -0.41351
 Alpha  occ. eigenvalues --   -0.38947  -0.38528  -0.38351  -0.37434  -0.37342
 Alpha  occ. eigenvalues --   -0.36286  -0.36192  -0.34734  -0.34444  -0.33371
 Alpha  occ. eigenvalues --   -0.33012  -0.32342  -0.31771  -0.30321  -0.28635
 Alpha  occ. eigenvalues --   -0.26315  -0.25279
 Alpha virt. eigenvalues --   -0.02997   0.00445   0.01937   0.06410   0.08040
 Alpha virt. eigenvalues --    0.10140   0.11115   0.12025   0.12989   0.13366
 Alpha virt. eigenvalues --    0.13621   0.13824   0.14952   0.15408   0.15708
 Alpha virt. eigenvalues --    0.16510   0.17049   0.17389   0.17920   0.18124
 Alpha virt. eigenvalues --    0.18866   0.20058   0.21196   0.21445   0.21788
 Alpha virt. eigenvalues --    0.22060   0.22402   0.22690   0.23194   0.23644
 Alpha virt. eigenvalues --    0.25069   0.25097   0.25787   0.27020   0.27591
 Alpha virt. eigenvalues --    0.30102   0.32413   0.38566   0.46261   0.47484
 Alpha virt. eigenvalues --    0.48774   0.49646   0.50232   0.50733   0.51611
 Alpha virt. eigenvalues --    0.52410   0.53327   0.54462   0.55254   0.57121
 Alpha virt. eigenvalues --    0.57624   0.58821   0.60472   0.61067   0.62044
 Alpha virt. eigenvalues --    0.62328   0.64445   0.64849   0.65935   0.67058
 Alpha virt. eigenvalues --    0.68244   0.69558   0.70389   0.71158   0.71864
 Alpha virt. eigenvalues --    0.73823   0.74018   0.75159   0.76259   0.76893
 Alpha virt. eigenvalues --    0.79159   0.80625   0.81298   0.82598   0.83432
 Alpha virt. eigenvalues --    0.84013   0.84678   0.84757   0.86078   0.86834
 Alpha virt. eigenvalues --    0.88127   0.89097   0.89533   0.89846   0.90550
 Alpha virt. eigenvalues --    0.90932   0.91407   0.91787   0.92131   0.92894
 Alpha virt. eigenvalues --    0.93073   0.93457   0.93790   0.95202   0.95619
 Alpha virt. eigenvalues --    0.96750   0.96921   0.98307   0.99360   0.99959
 Alpha virt. eigenvalues --    1.01585   1.04314   1.06825   1.07240   1.07462
 Alpha virt. eigenvalues --    1.11040   1.13918   1.14707   1.15845   1.20176
 Alpha virt. eigenvalues --    1.24507   1.29568   1.33654   1.35161   1.36234
 Alpha virt. eigenvalues --    1.36731   1.40560   1.42785   1.43374   1.44220
 Alpha virt. eigenvalues --    1.46069   1.47254   1.47786   1.49413   1.50152
 Alpha virt. eigenvalues --    1.51658   1.52878   1.58081   1.61135   1.62065
 Alpha virt. eigenvalues --    1.63469   1.64561   1.66955   1.70377   1.70714
 Alpha virt. eigenvalues --    1.72993   1.74000   1.77625   1.79694   1.80155
 Alpha virt. eigenvalues --    1.83061   1.84964   1.86313   1.87656   1.87928
 Alpha virt. eigenvalues --    1.88958   1.89427   1.91904   1.93236   1.95464
 Alpha virt. eigenvalues --    1.95898   1.96871   1.98394   2.00392   2.02099
 Alpha virt. eigenvalues --    2.03807   2.04740   2.06209   2.07776   2.09124
 Alpha virt. eigenvalues --    2.10523   2.10572   2.11425   2.13158   2.13878
 Alpha virt. eigenvalues --    2.14468   2.20081   2.20787   2.21980   2.25047
 Alpha virt. eigenvalues --    2.25633   2.26377   2.27177   2.27866   2.30887
 Alpha virt. eigenvalues --    2.31249   2.33644   2.33916   2.34904   2.36933
 Alpha virt. eigenvalues --    2.38814   2.44509   2.48002   2.51172   2.54988
 Alpha virt. eigenvalues --    2.55784   2.58013   2.59825   2.60652   2.63496
 Alpha virt. eigenvalues --    2.68650   2.70898   2.71651   2.72717   2.74697
 Alpha virt. eigenvalues --    2.77557   2.81516   2.85648   2.90635   2.97872
 Alpha virt. eigenvalues --    3.05682   3.07119   3.09875   3.14966   3.52205
 Alpha virt. eigenvalues --    3.77099   4.08010   4.09991   4.17163   4.20800
 Alpha virt. eigenvalues --    4.23636   4.29037   4.30770   4.31676   4.36103
 Alpha virt. eigenvalues --    4.40939   4.47014   4.52639   4.68453   4.70844
          Condensed to atoms (all electrons):
               1          2          3          4          5          6
     1  C    5.098226   0.351139  -0.038730  -0.003438  -0.002102   0.000122
     2  C    0.351139   5.043812   0.331379  -0.041805  -0.004174  -0.001464
     3  C   -0.038730   0.331379   5.131744   0.354193  -0.040088   0.000664
     4  C   -0.003438  -0.041805   0.354193   5.081239   0.366634  -0.057606
     5  C   -0.002102  -0.004174  -0.040088   0.366634   4.956152   0.242113
     6  N    0.000122  -0.001464   0.000664  -0.057606   0.242113   7.033976
     7  N   -0.000001  -0.000052   0.000092   0.002083  -0.044842   0.342223
     8  N   -0.000000   0.000000  -0.000041  -0.000114  -0.001830  -0.105075
     9  C    0.003209  -0.032262   0.361979  -0.025756  -0.008776   0.006228
    10  O   -0.000050   0.003043  -0.070019  -0.004167  -0.000028  -0.000708
    11  O    0.000419   0.004653  -0.091969  -0.001335   0.002003  -0.001735
    12  C   -0.000003  -0.000692   0.007495  -0.000199  -0.000100   0.001213
    13  C   -0.000001   0.000049  -0.000259  -0.000006  -0.000000   0.000034
    14  C    0.000001  -0.000173  -0.000068   0.000001  -0.000000  -0.000000
    15  C    0.000000   0.000000   0.000002   0.000000  -0.000000   0.000000
    16  C    0.000002  -0.000153   0.000009  -0.000001   0.000000  -0.000002
    17  H    0.375682  -0.034020  -0.006758   0.003789  -0.000196   0.000003
    18  H    0.375288  -0.028269   0.003917   0.000086   0.000018  -0.000001
    19  H    0.375626  -0.035490  -0.004065  -0.001105   0.000150  -0.000003
    20  H   -0.040687   0.371908  -0.029414  -0.009093   0.003822   0.000154
    21  H   -0.039683   0.380053  -0.036884   0.005203  -0.000007  -0.000002
    22  H   -0.005097  -0.046701   0.364576  -0.032623   0.005313   0.000002
    23  H   -0.000069   0.005439  -0.037908   0.366964  -0.035200  -0.000830
    24  H    0.003124  -0.005250  -0.031164   0.361880  -0.033971   0.004259
    25  H    0.000016   0.000035   0.005197  -0.039336   0.369473  -0.043000
    26  H    0.000299   0.004447  -0.009760  -0.031936   0.358662  -0.044282
    27  H    0.000001  -0.000001   0.000696  -0.000021  -0.000005  -0.000039
    28  H    0.000000   0.000021  -0.000364   0.000040  -0.000001   0.000052
    29  H    0.000000   0.000001   0.000024   0.000000  -0.000000   0.000000
    30  H    0.000000   0.000000   0.000002  -0.000000   0.000000   0.000000
    31  H   -0.000000   0.000062  -0.000067   0.000006  -0.000000   0.000001
    32  H   -0.000000   0.000000  -0.000000   0.000000   0.000000  -0.000000
    33  H   -0.000000  -0.000000  -0.000000  -0.000000   0.000000   0.000000
    34  H   -0.000000   0.000000  -0.000000  -0.000000   0.000000   0.000000
    35  H   -0.000000   0.000001  -0.000001   0.000000   0.000000  -0.000002
    36  H   -0.000003   0.000338  -0.000093   0.000002  -0.000001   0.000001
    37  H   -0.000000   0.000001  -0.000000  -0.000000   0.000000  -0.000000
               7          8          9         10         11         12
     1  C   -0.000001  -0.000000   0.003209  -0.000050   0.000419  -0.000003
     2  C   -0.000052   0.000000  -0.032262   0.003043   0.004653  -0.000692
     3  C    0.000092  -0.000041   0.361979  -0.070019  -0.091969   0.007495
     4  C    0.002083  -0.000114  -0.025756  -0.004167  -0.001335  -0.000199
     5  C   -0.044842  -0.001830  -0.008776  -0.000028   0.002003  -0.000100
     6  N    0.342223  -0.105075   0.006228  -0.000708  -0.001735   0.001213
     7  N    5.726854   0.561658  -0.000141   0.000019  -0.000272  -0.000023
     8  N    0.561658   6.810425   0.000024   0.000000   0.000001  -0.000055
     9  C   -0.000141   0.000024   4.343664   0.529779   0.232069  -0.010863
    10  O    0.000019   0.000000   0.529779   8.085950  -0.070354  -0.007647
    11  O   -0.000272   0.000001   0.232069  -0.070354   8.288108   0.189793
    12  C   -0.000023  -0.000055  -0.010863  -0.007647   0.189793   4.953533
    13  C   -0.000004  -0.000002  -0.003250  -0.000911  -0.039102   0.385668
    14  C   -0.000000  -0.000000   0.002511   0.000178  -0.001686  -0.054251
    15  C    0.000000  -0.000000   0.000063  -0.000002   0.002489  -0.054988
    16  C    0.000000   0.000000  -0.000186  -0.000002  -0.001750  -0.056421
    17  H   -0.000004   0.000000  -0.000000   0.000000  -0.000004   0.000000
    18  H    0.000000   0.000000  -0.000077   0.000000   0.000001  -0.000000
    19  H    0.000000   0.000000  -0.000026  -0.000003  -0.000004   0.000000
    20  H    0.000388  -0.000010  -0.006029  -0.000005   0.005059  -0.000020
    21  H   -0.000002   0.000000  -0.002119   0.000090   0.000941  -0.000238
    22  H    0.000003  -0.000000  -0.036528   0.000692   0.003113  -0.000150
    23  H    0.000326   0.000012  -0.004082   0.006973   0.000235  -0.000015
    24  H   -0.000098   0.000002   0.004245  -0.000043  -0.000103   0.000006
    25  H   -0.004107   0.000733   0.000059  -0.000007  -0.000006   0.000001
    26  H   -0.005079   0.005143  -0.000073  -0.000012  -0.000061   0.000009
    27  H    0.000001   0.000001  -0.006894   0.021016  -0.028274   0.353466
    28  H    0.000498   0.000202   0.003170   0.000644  -0.036838   0.364151
    29  H   -0.000000  -0.000000   0.000482   0.000888  -0.000556  -0.004258
    30  H    0.000000  -0.000000  -0.000003   0.000016   0.000042   0.005377
    31  H   -0.000000  -0.000000   0.001412  -0.000386   0.004903  -0.007134
    32  H   -0.000000  -0.000000   0.000001   0.000000   0.000010  -0.004954
    33  H   -0.000000   0.000000  -0.000001   0.000000  -0.000053   0.004600
    34  H    0.000000  -0.000000  -0.000013  -0.000019   0.000016  -0.004150
    35  H    0.000001   0.000012   0.000010   0.000000  -0.000097  -0.004510
    36  H    0.000001  -0.000001   0.000061   0.000001   0.005749  -0.007148
    37  H    0.000000   0.000000   0.000001   0.000000   0.000063   0.005245
              13         14         15         16         17         18
     1  C   -0.000001   0.000001   0.000000   0.000002   0.375682   0.375288
     2  C    0.000049  -0.000173   0.000000  -0.000153  -0.034020  -0.028269
     3  C   -0.000259  -0.000068   0.000002   0.000009  -0.006758   0.003917
     4  C   -0.000006   0.000001   0.000000  -0.000001   0.003789   0.000086
     5  C   -0.000000  -0.000000  -0.000000   0.000000  -0.000196   0.000018
     6  N    0.000034  -0.000000   0.000000  -0.000002   0.000003  -0.000001
     7  N   -0.000004  -0.000000   0.000000   0.000000  -0.000004   0.000000
     8  N   -0.000002  -0.000000  -0.000000   0.000000   0.000000   0.000000
     9  C   -0.003250   0.002511   0.000063  -0.000186  -0.000000  -0.000077
    10  O   -0.000911   0.000178  -0.000002  -0.000002   0.000000   0.000000
    11  O   -0.039102  -0.001686   0.002489  -0.001750  -0.000004   0.000001
    12  C    0.385668  -0.054251  -0.054988  -0.056421   0.000000  -0.000000
    13  C    4.780997   0.378422   0.371548   0.381091   0.000000   0.000000
    14  C    0.378422   5.157926  -0.057651  -0.069400  -0.000000  -0.000000
    15  C    0.371548  -0.057651   5.157707  -0.058975  -0.000000  -0.000000
    16  C    0.381091  -0.069400  -0.058975   5.160519  -0.000000   0.000000
    17  H    0.000000  -0.000000  -0.000000  -0.000000   0.577902  -0.030182
    18  H    0.000000  -0.000000  -0.000000   0.000000  -0.030182   0.564318
    19  H   -0.000000   0.000000  -0.000000  -0.000000  -0.032118  -0.029679
    20  H   -0.000000   0.000008  -0.000000   0.000003  -0.005473  -0.002385
    21  H    0.000007  -0.000033   0.000001  -0.000081   0.005310  -0.003925
    22  H    0.000017   0.000004  -0.000000   0.000000  -0.000294  -0.000035
    23  H    0.000000  -0.000000   0.000000   0.000000  -0.000008   0.000001
    24  H    0.000000  -0.000000   0.000000  -0.000000   0.001379  -0.000075
    25  H    0.000000   0.000000   0.000000  -0.000000  -0.000094   0.000001
    26  H    0.000000  -0.000000  -0.000000  -0.000000   0.002242  -0.000052
    27  H   -0.034524  -0.007252  -0.000824   0.005762  -0.000000  -0.000000
    28  H   -0.040013   0.006513  -0.001231  -0.009003  -0.000000  -0.000000
    29  H   -0.028617   0.366633  -0.004396   0.005730   0.000000  -0.000000
    30  H   -0.028882   0.368395  -0.006057  -0.004630   0.000000  -0.000000
    31  H   -0.028039   0.367078   0.005811  -0.004894   0.000000  -0.000000
    32  H   -0.030536   0.006028   0.366278  -0.005214   0.000000  -0.000000
    33  H   -0.024415  -0.005443   0.368689  -0.005017   0.000000   0.000000
    34  H   -0.030396  -0.004910   0.366642   0.006018   0.000000   0.000000
    35  H   -0.030324   0.005900  -0.004346   0.364958   0.000000  -0.000000
    36  H   -0.027490  -0.004711   0.005628   0.368830   0.000000  -0.000001
    37  H   -0.029084  -0.004242  -0.006136   0.368074   0.000000  -0.000000
              19         20         21         22         23         24
     1  C    0.375626  -0.040687  -0.039683  -0.005097  -0.000069   0.003124
     2  C   -0.035490   0.371908   0.380053  -0.046701   0.005439  -0.005250
     3  C   -0.004065  -0.029414  -0.036884   0.364576  -0.037908  -0.031164
     4  C   -0.001105  -0.009093   0.005203  -0.032623   0.366964   0.361880
     5  C    0.000150   0.003822  -0.000007   0.005313  -0.035200  -0.033971
     6  N   -0.000003   0.000154  -0.000002   0.000002  -0.000830   0.004259
     7  N    0.000000   0.000388  -0.000002   0.000003   0.000326  -0.000098
     8  N    0.000000  -0.000010   0.000000  -0.000000   0.000012   0.000002
     9  C   -0.000026  -0.006029  -0.002119  -0.036528  -0.004082   0.004245
    10  O   -0.000003  -0.000005   0.000090   0.000692   0.006973  -0.000043
    11  O   -0.000004   0.005059   0.000941   0.003113   0.000235  -0.000103
    12  C    0.000000  -0.000020  -0.000238  -0.000150  -0.000015   0.000006
    13  C   -0.000000  -0.000000   0.000007   0.000017   0.000000   0.000000
    14  C    0.000000   0.000008  -0.000033   0.000004  -0.000000  -0.000000
    15  C   -0.000000  -0.000000   0.000001  -0.000000   0.000000   0.000000
    16  C   -0.000000   0.000003  -0.000081   0.000000   0.000000  -0.000000
    17  H   -0.032118  -0.005473   0.005310  -0.000294  -0.000008   0.001379
    18  H   -0.029679  -0.002385  -0.003925  -0.000035   0.000001  -0.000075
    19  H    0.572985   0.005345  -0.004019   0.005773  -0.000025   0.000548
    20  H    0.005345   0.582958  -0.035360   0.005673  -0.000072  -0.000026
    21  H   -0.004019  -0.035360   0.585397  -0.003739  -0.000114  -0.000035
    22  H    0.005773   0.005673  -0.003739   0.589722  -0.001394  -0.007198
    23  H   -0.000025  -0.000072  -0.000114  -0.001394   0.550229  -0.031173
    24  H    0.000548  -0.000026  -0.000035  -0.007198  -0.031173   0.585247
    25  H   -0.000001   0.000032  -0.000002  -0.000113  -0.004159  -0.000417
    26  H   -0.000017   0.001496  -0.000063   0.000019   0.005368  -0.002264
    27  H   -0.000000   0.000011  -0.000006  -0.000012  -0.000017   0.000000
    28  H    0.000000  -0.000023   0.000008  -0.000003   0.000001  -0.000000
    29  H   -0.000000   0.000000  -0.000007  -0.000001  -0.000000   0.000000
    30  H   -0.000000  -0.000000  -0.000005   0.000000  -0.000000  -0.000000
    31  H   -0.000000  -0.000026   0.001679  -0.000024   0.000000   0.000000
    32  H    0.000000  -0.000000  -0.000000  -0.000000   0.000000  -0.000000
    33  H   -0.000000   0.000000  -0.000000   0.000000   0.000000  -0.000000
    34  H   -0.000000  -0.000000  -0.000000   0.000000   0.000000  -0.000000
    35  H    0.000000   0.000003  -0.000002  -0.000000   0.000000  -0.000000
    36  H    0.000000   0.000411   0.000867  -0.000001  -0.000000   0.000000
    37  H    0.000000   0.000000  -0.000003   0.000000  -0.000000   0.000000
              25         26         27         28         29         30
     1  C    0.000016   0.000299   0.000001   0.000000   0.000000   0.000000
     2  C    0.000035   0.004447  -0.000001   0.000021   0.000001   0.000000
     3  C    0.005197  -0.009760   0.000696  -0.000364   0.000024   0.000002
     4  C   -0.039336  -0.031936  -0.000021   0.000040   0.000000  -0.000000
     5  C    0.369473   0.358662  -0.000005  -0.000001  -0.000000   0.000000
     6  N   -0.043000  -0.044282  -0.000039   0.000052   0.000000   0.000000
     7  N   -0.004107  -0.005079   0.000001   0.000498  -0.000000   0.000000
     8  N    0.000733   0.005143   0.000001   0.000202  -0.000000  -0.000000
     9  C    0.000059  -0.000073  -0.006894   0.003170   0.000482  -0.000003
    10  O   -0.000007  -0.000012   0.021016   0.000644   0.000888   0.000016
    11  O   -0.000006  -0.000061  -0.028274  -0.036838  -0.000556   0.000042
    12  C    0.000001   0.000009   0.353466   0.364151  -0.004258   0.005377
    13  C    0.000000   0.000000  -0.034524  -0.040013  -0.028617  -0.028882
    14  C    0.000000  -0.000000  -0.007252   0.006513   0.366633   0.368395
    15  C    0.000000  -0.000000  -0.000824  -0.001231  -0.004396  -0.006057
    16  C   -0.000000  -0.000000   0.005762  -0.009003   0.005730  -0.004630
    17  H   -0.000094   0.002242  -0.000000  -0.000000   0.000000   0.000000
    18  H    0.000001  -0.000052  -0.000000  -0.000000  -0.000000  -0.000000
    19  H   -0.000001  -0.000017  -0.000000   0.000000  -0.000000  -0.000000
    20  H    0.000032   0.001496   0.000011  -0.000023   0.000000  -0.000000
    21  H   -0.000002  -0.000063  -0.000006   0.000008  -0.000007  -0.000005
    22  H   -0.000113   0.000019  -0.000012  -0.000003  -0.000001   0.000000
    23  H   -0.004159   0.005368  -0.000017   0.000001  -0.000000  -0.000000
    24  H   -0.000417  -0.002264   0.000000  -0.000000   0.000000  -0.000000
    25  H    0.591461  -0.041640  -0.000000   0.000000   0.000000   0.000000
    26  H   -0.041640   0.599629  -0.000000   0.000000   0.000000   0.000000
    27  H   -0.000000  -0.000000   0.550445  -0.038426   0.003894  -0.000017
    28  H    0.000000   0.000000  -0.038426   0.598828  -0.000100  -0.000157
    29  H    0.000000   0.000000   0.003894  -0.000100   0.564884  -0.029569
    30  H    0.000000   0.000000  -0.000017  -0.000157  -0.029569   0.579576
    31  H    0.000000  -0.000000   0.000072   0.000039  -0.029297  -0.031213
    32  H   -0.000000  -0.000000  -0.000370   0.004961  -0.000082  -0.000009
    33  H    0.000000   0.000000  -0.000152  -0.000203  -0.000133   0.004174
    34  H    0.000000   0.000000   0.004438  -0.000359   0.003873  -0.000172
    35  H   -0.000000   0.000000  -0.000055   0.004722  -0.000201  -0.000045
    36  H    0.000000  -0.000001   0.000063   0.000142  -0.000018  -0.000226
    37  H    0.000000   0.000000  -0.000124  -0.000036  -0.000037   0.003717
              31         32         33         34         35         36
     1  C   -0.000000  -0.000000  -0.000000  -0.000000  -0.000000  -0.000003
     2  C    0.000062   0.000000  -0.000000   0.000000   0.000001   0.000338
     3  C   -0.000067  -0.000000  -0.000000  -0.000000  -0.000001  -0.000093
     4  C    0.000006   0.000000  -0.000000  -0.000000   0.000000   0.000002
     5  C   -0.000000   0.000000   0.000000   0.000000   0.000000  -0.000001
     6  N    0.000001  -0.000000   0.000000   0.000000  -0.000002   0.000001
     7  N   -0.000000  -0.000000  -0.000000   0.000000   0.000001   0.000001
     8  N   -0.000000  -0.000000   0.000000  -0.000000   0.000012  -0.000001
     9  C    0.001412   0.000001  -0.000001  -0.000013   0.000010   0.000061
    10  O   -0.000386   0.000000   0.000000  -0.000019   0.000000   0.000001
    11  O    0.004903   0.000010  -0.000053   0.000016  -0.000097   0.005749
    12  C   -0.007134  -0.004954   0.004600  -0.004150  -0.004510  -0.007148
    13  C   -0.028039  -0.030536  -0.024415  -0.030396  -0.030324  -0.027490
    14  C    0.367078   0.006028  -0.005443  -0.004910   0.005900  -0.004711
    15  C    0.005811   0.366278   0.368689   0.366642  -0.004346   0.005628
    16  C   -0.004894  -0.005214  -0.005017   0.006018   0.364958   0.368830
    17  H    0.000000   0.000000   0.000000   0.000000   0.000000   0.000000
    18  H   -0.000000  -0.000000   0.000000   0.000000  -0.000000  -0.000001
    19  H   -0.000000   0.000000  -0.000000  -0.000000   0.000000   0.000000
    20  H   -0.000026  -0.000000   0.000000  -0.000000   0.000003   0.000411
    21  H    0.001679  -0.000000  -0.000000  -0.000000  -0.000002   0.000867
    22  H   -0.000024  -0.000000   0.000000   0.000000  -0.000000  -0.000001
    23  H    0.000000   0.000000   0.000000   0.000000   0.000000  -0.000000
    24  H    0.000000  -0.000000  -0.000000  -0.000000  -0.000000   0.000000
    25  H    0.000000  -0.000000   0.000000   0.000000  -0.000000   0.000000
    26  H   -0.000000  -0.000000   0.000000   0.000000   0.000000  -0.000001
    27  H    0.000072  -0.000370  -0.000152   0.004438  -0.000055   0.000063
    28  H    0.000039   0.004961  -0.000203  -0.000359   0.004722   0.000142
    29  H   -0.029297  -0.000082  -0.000133   0.003873  -0.000201  -0.000018
    30  H   -0.031213  -0.000009   0.004174  -0.000172  -0.000045  -0.000226
    31  H    0.572479  -0.000194  -0.000050  -0.000040  -0.000014   0.004080
    32  H   -0.000194   0.579789  -0.030103  -0.030876   0.004002  -0.000044
    33  H   -0.000050  -0.030103   0.566572  -0.029632  -0.000162  -0.000036
    34  H   -0.000040  -0.030876  -0.029632   0.574919  -0.000083  -0.000189
    35  H   -0.000014   0.004002  -0.000162  -0.000083   0.581366  -0.029079
    36  H    0.004080  -0.000044  -0.000036  -0.000189  -0.029079   0.560909
    37  H   -0.000245  -0.000128   0.004283  -0.000019  -0.030378  -0.030869
              37
     1  C   -0.000000
     2  C    0.000001
     3  C   -0.000000
     4  C   -0.000000
     5  C    0.000000
     6  N   -0.000000
     7  N    0.000000
     8  N    0.000000
     9  C    0.000001
    10  O    0.000000
    11  O    0.000063
    12  C    0.005245
    13  C   -0.029084
    14  C   -0.004242
    15  C   -0.006136
    16  C    0.368074
    17  H    0.000000
    18  H   -0.000000
    19  H    0.000000
    20  H    0.000000
    21  H   -0.000003
    22  H    0.000000
    23  H   -0.000000
    24  H    0.000000
    25  H    0.000000
    26  H    0.000000
    27  H   -0.000124
    28  H   -0.000036
    29  H   -0.000037
    30  H    0.003717
    31  H   -0.000245
    32  H   -0.000128
    33  H    0.004283
    34  H   -0.000019
    35  H   -0.030378
    36  H   -0.030869
    37  H    0.581323
 Mulliken charges:
               1
     1  C   -0.453291
     2  C   -0.265877
     3  C   -0.164317
     4  C   -0.293579
     5  C   -0.133016
     6  N   -0.376297
     7  N    0.420478
     8  N   -0.271084
     9  C    0.648114
    10  O   -0.494927
    11  O   -0.465468
    12  C   -0.052737
    13  C    0.078021
    14  C   -0.449776
    15  C   -0.450253
    16  C   -0.445266
    17  H    0.142844
    18  H    0.151051
    19  H    0.146127
    20  H    0.151353
    21  H    0.146774
    22  H    0.159005
    23  H    0.179517
    24  H    0.151127
    25  H    0.165874
    26  H    0.157925
    27  H    0.177145
    28  H    0.142764
    29  H    0.150862
    30  H    0.139685
    31  H    0.144002
    32  H    0.141439
    33  H    0.147085
    34  H    0.144954
    35  H    0.138324
    36  H    0.152825
    37  H    0.138592
 Sum of Mulliken charges =   0.00000
 Mulliken charges with hydrogens summed into heavy atoms:
               1
     1  C   -0.013269
     2  C    0.032250
     3  C   -0.005312
     4  C    0.037065
     5  C    0.190783
     6  N   -0.376297
     7  N    0.420478
     8  N   -0.271084
     9  C    0.648114
    10  O   -0.494927
    11  O   -0.465468
    12  C    0.267173
    13  C    0.078021
    14  C   -0.015226
    15  C   -0.016775
    16  C   -0.015525
 Electronic spatial extent (au):  <R**2>=           4296.8285
 Charge=             -0.0000 electrons
 Dipole moment (field-independent basis, Debye):
    X=             -1.2391    Y=             -1.0741    Z=              1.6964  Tot=              2.3594
 Quadrupole moment (field-independent basis, Debye-Ang):
   XX=            -85.7033   YY=           -102.9453   ZZ=           -106.0541
   XY=              3.0472   XZ=              0.6029   YZ=             -5.0198
 Traceless Quadrupole moment (field-independent basis, Debye-Ang):
   XX=             12.5310   YY=             -4.7111   ZZ=             -7.8199
   XY=              3.0472   XZ=              0.6029   YZ=             -5.0198
 Octapole moment (field-independent basis, Debye-Ang**2):
  XXX=            -21.6794  YYY=            -24.0552  ZZZ=              8.3978  XYY=              3.4401
  XXY=              3.9906  XXZ=             -6.9039  XZZ=             -1.7983  YZZ=              2.7812
  YYZ=            -10.9699  XYZ=             -1.1496
 Hexadecapole moment (field-independent basis, Debye-Ang**3):
 XXXX=          -3375.2756 YYYY=          -1603.8768 ZZZZ=           -815.9598 XXXY=            -49.5909
 XXXZ=             24.4266 YYYX=             31.8057 YYYZ=            -39.3704 ZZZX=             -5.9994
 ZZZY=            -17.4368 XXYY=           -837.5774 XXZZ=           -705.5689 YYZZ=           -407.7628
 XXYZ=              4.5749 YYXZ=             17.6820 ZZXY=              2.4981
 N-N= 1.193256386112D+03 E-N=-4.121817716719D+03  KE= 7.393955686475D+02
 Calling FoFJK, ICntrl=      2127 FMM=F ISym2X=0 I1Cent= 0 IOpClX= 0 NMat=1 NMatS=1 NMatT=0.
 ***** Axes restored to original set *****
 -------------------------------------------------------------------
 Center     Atomic                   Forces (Hartrees/Bohr)
 Number     Number              X              Y              Z
 -------------------------------------------------------------------
      1        6          -0.000302316   -0.001867294    0.000122854
      2        6          -0.003491724   -0.000448387    0.001256524
      3        6           0.004518213   -0.000905350    0.009381295
      4        6           0.000406815    0.000187343   -0.004632445
      5        6           0.006036836   -0.005902688   -0.004609776
      6        7          -0.019768143    0.010753388    0.012058808
      7        7           0.023953427   -0.009794020   -0.012832714
      8        7          -0.006808102    0.005711031    0.004899381
      9        6           0.004532838    0.014389015   -0.005825081
     10        8          -0.012186754   -0.017900612    0.007895902
     11        8           0.008585236    0.008213089   -0.005280313
     12        6          -0.006759055    0.007952604    0.010358757
     13        6           0.002591061   -0.004727650    0.003674965
     14        6           0.002643175    0.001477117   -0.002396517
     15        6          -0.001447616    0.001800604   -0.004418792
     16        6          -0.001634814   -0.002263990   -0.001201797
     17        1           0.000697245   -0.001317603   -0.001695362
     18        1           0.000482060   -0.001072990   -0.000684253
     19        1           0.001220728   -0.000978426   -0.001379568
     20        1           0.000445381    0.002502903    0.000398715
     21        1          -0.001199182    0.002417191   -0.000814224
     22        1          -0.002004185    0.002492458   -0.003078349
     23        1          -0.000055265   -0.000840503    0.002466535
     24        1          -0.001665710   -0.000602917    0.000529723
     25        1           0.000224524   -0.000501676   -0.001691635
     26        1          -0.001152163   -0.000021490    0.002094274
     27        1           0.004474285   -0.006989220   -0.002219953
     28        1          -0.000194489   -0.003386722    0.000353653
     29        1           0.000320964    0.000052292   -0.000550825
     30        1          -0.001417747   -0.000181484    0.000263294
     31        1          -0.000691957    0.000037400   -0.000721001
     32        1          -0.000908545    0.000187928    0.000088688
     33        1           0.000526436   -0.001455670   -0.000642718
     34        1           0.000387542    0.000692255   -0.000131439
     35        1          -0.000931185    0.000013705   -0.000047108
     36        1          -0.000008240    0.001070578   -0.001103845
     37        1           0.000580428    0.001207791    0.000114353
 -------------------------------------------------------------------
 Cartesian Forces:  Max     0.023953427 RMS     0.005421701

 GradGradGradGradGradGradGradGradGradGradGradGradGradGradGradGradGradGrad
 Berny optimization.
 FormGI is forming the generalized inverse of G from B-inverse, IUseBI=4.
 Internal  Forces:  Max     0.022824823 RMS     0.002951169
 Search for a local minimum.
 Step number   1 out of a maximum of  199
 All quantities printed in internal units (Hartrees-Bohrs-Radians)
 Mixed Optimization -- RFO/linear search
 Second derivative matrix not updated -- first step.
 ITU=  0
     Eigenvalues ---    0.00230   0.00230   0.00243   0.00262   0.00270
     Eigenvalues ---    0.00273   0.00376   0.00440   0.00465   0.00852
     Eigenvalues ---    0.00911   0.01190   0.02237   0.03115   0.03170
     Eigenvalues ---    0.03427   0.04597   0.04621   0.04714   0.04739
     Eigenvalues ---    0.04739   0.04769   0.04787   0.04795   0.04908
     Eigenvalues ---    0.04953   0.05375   0.05379   0.05421   0.05430
     Eigenvalues ---    0.05438   0.05444   0.05516   0.05704   0.05741
     Eigenvalues ---    0.05898   0.06180   0.08469   0.08874   0.11168
     Eigenvalues ---    0.11442   0.12304   0.12595   0.13727   0.13848
     Eigenvalues ---    0.14288   0.14503   0.16000   0.16000   0.16000
     Eigenvalues ---    0.16000   0.16000   0.16000   0.16000   0.16000
     Eigenvalues ---    0.16000   0.16000   0.16000   0.16000   0.18064
     Eigenvalues ---    0.18814   0.21895   0.21961   0.21965   0.21970
     Eigenvalues ---    0.24996   0.25000   0.25000   0.25000   0.28139
     Eigenvalues ---    0.28391   0.28562   0.28690   0.28744   0.28764
     Eigenvalues ---    0.29474   0.29921   0.30104   0.33660   0.33891
     Eigenvalues ---    0.33919   0.34005   0.34064   0.34076   0.34087
     Eigenvalues ---    0.34118   0.34130   0.34134   0.34145   0.34147
     Eigenvalues ---    0.34147   0.34151   0.34152   0.34156   0.34182
     Eigenvalues ---    0.34200   0.34267   0.34294   0.34385   0.36532
     Eigenvalues ---    0.39871   0.53194   0.85655   0.93062   1.42086
 RFO step:  Lambda=-9.33465216D-03 EMin= 2.30000000D-03
 Linear search not attempted -- first point.
 Maximum step size (   0.300) exceeded in Quadratic search.
    -- Step size scaled by   0.987
 Iteration  1 RMS(Cart)=  0.08676024 RMS(Int)=  0.00634924
 Iteration  2 RMS(Cart)=  0.00844451 RMS(Int)=  0.00017433
 Iteration  3 RMS(Cart)=  0.00016265 RMS(Int)=  0.00014488
 Iteration  4 RMS(Cart)=  0.00000010 RMS(Int)=  0.00014488
 Variable       Old X    -DE/DX   Delta X   Delta X   Delta X     New X
                                 (Linear)    (Quad)   (Total)
    R1        2.87757   0.00661   0.00000   0.02103   0.02103   2.89860
    R2        2.06685   0.00139   0.00000   0.00388   0.00388   2.07073
    R3        2.06882   0.00028   0.00000   0.00080   0.00080   2.06962
    R4        2.06837   0.00143   0.00000   0.00401   0.00401   2.07237
    R5        2.90927  -0.00051   0.00000  -0.00169  -0.00169   2.90758
    R6        2.07131  -0.00051   0.00000  -0.00143  -0.00143   2.06988
    R7        2.07468  -0.00098   0.00000  -0.00277  -0.00277   2.07190
    R8        2.91291   0.00113   0.00000   0.00379   0.00379   2.91670
    R9        2.88121  -0.00034   0.00000  -0.00108  -0.00108   2.88013
   R10        2.07909  -0.00167   0.00000  -0.00477  -0.00477   2.07432
   R11        2.89024  -0.00248   0.00000  -0.00806  -0.00806   2.88217
   R12        2.07515  -0.00187   0.00000  -0.00529  -0.00529   2.06986
   R13        2.07322  -0.00061   0.00000  -0.00173  -0.00173   2.07148
   R14        2.76557   0.00810   0.00000   0.02132   0.02132   2.78690
   R15        2.07202   0.00161   0.00000   0.00454   0.00454   2.07656
   R16        2.07082   0.00123   0.00000   0.00346   0.00346   2.07428
   R17        2.35003  -0.01766   0.00000  -0.02013  -0.02013   2.32990
   R18        2.15364   0.00683   0.00000   0.00471   0.00471   2.15835
   R19        2.31553  -0.02282   0.00000  -0.02397  -0.02397   2.29156
   R20        2.56773  -0.00739   0.00000  -0.01347  -0.01347   2.55426
   R21        2.71729  -0.00239   0.00000  -0.00578  -0.00578   2.71151
   R22        2.91837  -0.00683   0.00000  -0.02317  -0.02317   2.89519
   R23        2.07183  -0.00296   0.00000  -0.00835  -0.00835   2.06349
   R24        2.07223  -0.00015   0.00000  -0.00042  -0.00042   2.07181
   R25        2.90540   0.00015   0.00000   0.00050   0.00050   2.90589
   R26        2.90498  -0.00073   0.00000  -0.00243  -0.00243   2.90255
   R27        2.90655   0.00002   0.00000   0.00007   0.00007   2.90662
   R28        2.07068   0.00042   0.00000   0.00119   0.00119   2.07186
   R29        2.07112  -0.00002   0.00000  -0.00005  -0.00005   2.07107
   R30        2.06994  -0.00001   0.00000  -0.00003  -0.00003   2.06992
   R31        2.07086   0.00090   0.00000   0.00253   0.00253   2.07339
   R32        2.07077  -0.00052   0.00000  -0.00147  -0.00147   2.06930
   R33        2.07082   0.00079   0.00000   0.00221   0.00221   2.07303
   R34        2.07074   0.00093   0.00000   0.00260   0.00260   2.07334
   R35        2.07025  -0.00049   0.00000  -0.00138  -0.00138   2.06887
   R36        2.07105   0.00014   0.00000   0.00040   0.00040   2.07144
    A1        1.94808   0.00164   0.00000   0.00889   0.00885   1.95693
    A2        1.92004   0.00145   0.00000   0.01020   0.01014   1.93019
    A3        1.93755   0.00114   0.00000   0.00552   0.00550   1.94306
    A4        1.87845  -0.00132   0.00000  -0.00565  -0.00572   1.87273
    A5        1.89311  -0.00194   0.00000  -0.01452  -0.01452   1.87859
    A6        1.88447  -0.00116   0.00000  -0.00552  -0.00556   1.87891
    A7        1.97741  -0.00064   0.00000  -0.00125  -0.00118   1.97623
    A8        1.90428   0.00168   0.00000   0.01640   0.01636   1.92064
    A9        1.88936   0.00190   0.00000   0.01918   0.01915   1.90851
   A10        1.93914  -0.00116   0.00000  -0.01377  -0.01381   1.92532
   A11        1.90034  -0.00128   0.00000  -0.01415  -0.01420   1.88615
   A12        1.84819  -0.00043   0.00000  -0.00607  -0.00645   1.84174
   A13        2.01257  -0.00197   0.00000  -0.01427  -0.01422   1.99836
   A14        1.97603   0.00119   0.00000   0.00607   0.00583   1.98185
   A15        1.85059   0.00236   0.00000   0.03190   0.03175   1.88234
   A16        1.92394   0.00000   0.00000  -0.00825  -0.00828   1.91566
   A17        1.86876  -0.00123   0.00000  -0.01923  -0.01908   1.84969
   A18        1.81606  -0.00021   0.00000   0.00633   0.00597   1.82204
   A19        2.02442  -0.00186   0.00000  -0.01113  -0.01119   2.01323
   A20        1.90620  -0.00046   0.00000  -0.00931  -0.00938   1.89682
   A21        1.89350   0.00114   0.00000   0.00870   0.00872   1.90222
   A22        1.89839   0.00092   0.00000   0.00071   0.00058   1.89897
   A23        1.88403   0.00002   0.00000   0.00052   0.00055   1.88458
   A24        1.84939   0.00043   0.00000   0.01294   0.01295   1.86235
   A25        1.91602  -0.00224   0.00000  -0.01184  -0.01191   1.90411
   A26        1.89930   0.00050   0.00000   0.00729   0.00731   1.90661
   A27        1.93526   0.00083   0.00000  -0.00006  -0.00023   1.93503
   A28        1.89357   0.00145   0.00000   0.01274   0.01280   1.90637
   A29        1.95168  -0.00058   0.00000  -0.01430  -0.01441   1.93726
   A30        1.86625   0.00017   0.00000   0.00767   0.00768   1.87394
   A31        2.02242  -0.00219   0.00000  -0.00834  -0.00834   2.01407
   A32        2.14221   0.00282   0.00000   0.01106   0.01065   2.15286
   A33        1.95566   0.00179   0.00000   0.00715   0.00675   1.96242
   A34        2.18505  -0.00459   0.00000  -0.01709  -0.01748   2.16757
   A35        2.04509   0.00219   0.00000   0.00835   0.00835   2.05343
   A36        1.93297   0.00110   0.00000  -0.00471  -0.00490   1.92807
   A37        1.96163  -0.00550   0.00000  -0.06003  -0.06017   1.90146
[...]
   325    C   15  pz     Ryd( 5p)     0.00001       3.07983
   326    C   15  dxy    Ryd( 3d)     0.00034       2.28344
   327    C   15  dxz    Ryd( 3d)     0.00013       1.99814
   328    C   15  dyz    Ryd( 3d)     0.00034       2.14219
   329    C   15  dx2y2  Ryd( 3d)     0.00038       2.13932
   330    C   15  dz2    Ryd( 3d)     0.00050       2.30017
 
   331    C   16  S      Cor( 1S)     0.99963      -9.92009
   332    C   16  S      Val( 2S)     0.53506      -0.14179
   333    C   16  S      Ryd( 4S)     0.00024       1.72310
   334    C   16  S      Ryd( 3S)     0.00053       1.27747
   335    C   16  S      Ryd( 5S)     0.00001      22.25253
   336    C   16  px     Val( 2p)     0.60596       0.00946
   337    C   16  px     Ryd( 4p)     0.00118       0.71934
   338    C   16  px     Ryd( 3p)     0.00005       0.55007
   339    C   16  px     Ryd( 5p)     0.00001       3.17973
   340    C   16  py     Val( 2p)     0.60254       0.00890
   341    C   16  py     Ryd( 4p)     0.00140       0.71410
   342    C   16  py     Ryd( 3p)     0.00005       0.53620
   343    C   16  py     Ryd( 5p)     0.00001       3.15592
   344    C   16  pz     Val( 2p)     0.53578       0.01357
   345    C   16  pz     Ryd( 4p)     0.00080       0.68028
   346    C   16  pz     Ryd( 3p)     0.00004       0.58625
   347    C   16  pz     Ryd( 5p)     0.00004       3.22441
   348    C   16  dxy    Ryd( 3d)     0.00047       2.25989
   349    C   16  dxz    Ryd( 3d)     0.00023       2.02466
   350    C   16  dyz    Ryd( 3d)     0.00044       2.20596
   351    C   16  dx2y2  Ryd( 3d)     0.00023       2.09049
   352    C   16  dz2    Ryd( 3d)     0.00034       2.34418
 
   353    H   17  S      Val( 1S)     0.40017       0.13471
   354    H   17  S      Ryd( 2S)     0.00079       0.48419
   355    H   17  S      Ryd( 4S)     0.00034       1.44857
   356    H   17  S      Ryd( 3S)     0.00004       1.09258
   357    H   17  px     Ryd( 2p)     0.00013       2.58569
   358    H   17  py     Ryd( 2p)     0.00007       2.09783
   359    H   17  pz     Ryd( 2p)     0.00008       1.94748
 
   360    H   18  S      Val( 1S)     0.39934       0.13615
   361    H   18  S      Ryd( 2S)     0.00029       0.42105
   362    H   18  S      Ryd( 4S)     0.00023       1.56525
   363    H   18  S      Ryd( 3S)     0.00001       1.11072
   364    H   18  px     Ryd( 2p)     0.00006       1.85934
   365    H   18  py     Ryd( 2p)     0.00008       1.94375
   366    H   18  pz     Ryd( 2p)     0.00014       2.73828
 
   367    H   19  S      Val( 1S)     0.40237       0.13039
   368    H   19  S      Ryd( 2S)     0.00058       0.40087
   369    H   19  S      Ryd( 4S)     0.00035       1.55337
   370    H   19  S      Ryd( 3S)     0.00002       1.13808
   371    H   19  px     Ryd( 2p)     0.00006       1.85080
   372    H   19  py     Ryd( 2p)     0.00013       2.60449
   373    H   19  pz     Ryd( 2p)     0.00009       2.11563
 
   374    H   20  S      Val( 1S)     0.39712       0.14886
   375    H   20  S      Ryd( 2S)     0.00083       0.52729
   376    H   20  S      Ryd( 4S)     0.00037       2.26444
   377    H   20  S      Ryd( 3S)     0.00003       0.80241
   378    H   20  px     Ryd( 2p)     0.00008       2.05770
   379    H   20  py     Ryd( 2p)     0.00013       2.56695
   380    H   20  pz     Ryd( 2p)     0.00008       2.26513
 
   381    H   21  S      Val( 1S)     0.39813       0.14525
   382    H   21  S      Ryd( 2S)     0.00057       0.68082
   383    H   21  S      Ryd( 4S)     0.00048       1.86648
   384    H   21  S      Ryd( 3S)     0.00003       0.97637
   385    H   21  px     Ryd( 2p)     0.00014       2.54584
   386    H   21  py     Ryd( 2p)     0.00008       2.28334
   387    H   21  pz     Ryd( 2p)     0.00007       1.97422
 
   388    H   22  S      Val( 1S)     0.38736       0.13921
   389    H   22  S      Ryd( 2S)     0.00032       0.58490
   390    H   22  S      Ryd( 3S)     0.00085       1.32770
   391    H   22  S      Ryd( 4S)     0.00010       2.63163
   392    H   22  px     Ryd( 2p)     0.00010       2.04353
   393    H   22  py     Ryd( 2p)     0.00014       2.75065
   394    H   22  pz     Ryd( 2p)     0.00008       2.24046
 
   395    H   23  S      Val( 1S)     0.38901       0.15406
   396    H   23  S      Ryd( 2S)     0.00056       0.48450
   397    H   23  S      Ryd( 4S)     0.00046       1.91218
   398    H   23  S      Ryd( 3S)     0.00002       1.02924
   399    H   23  px     Ryd( 2p)     0.00007       1.97628
   400    H   23  py     Ryd( 2p)     0.00007       1.97354
   401    H   23  pz     Ryd( 2p)     0.00013       2.80943
 
   402    H   24  S      Val( 1S)     0.39440       0.13775
   403    H   24  S      Ryd( 2S)     0.00068       0.46471
   404    H   24  S      Ryd( 4S)     0.00032       1.77321
   405    H   24  S      Ryd( 3S)     0.00001       1.02387
   406    H   24  px     Ryd( 2p)     0.00012       2.53233
   407    H   24  py     Ryd( 2p)     0.00010       2.22655
   408    H   24  pz     Ryd( 2p)     0.00007       1.98125
 
   409    H   25  S      Val( 1S)     0.39833       0.12834
   410    H   25  S      Ryd( 2S)     0.00107       0.37774
   411    H   25  S      Ryd( 4S)     0.00037       1.40970
   412    H   25  S      Ryd( 3S)     0.00003       1.32802
   413    H   25  px     Ryd( 2p)     0.00013       2.53498
   414    H   25  py     Ryd( 2p)     0.00010       2.06078
   415    H   25  pz     Ryd( 2p)     0.00009       2.09244
 
   416    H   26  S      Val( 1S)     0.40603       0.11496
   417    H   26  S      Ryd( 2S)     0.00081       0.61845
   418    H   26  S      Ryd( 4S)     0.00048       1.73436
   419    H   26  S      Ryd( 3S)     0.00002       0.95801
   420    H   26  px     Ryd( 2p)     0.00006       2.04104
   421    H   26  py     Ryd( 2p)     0.00007       1.91397
   422    H   26  pz     Ryd( 2p)     0.00016       2.77653
 
   423    H   27  S      Val( 1S)     0.39664       0.13301
   424    H   27  S      Ryd( 2S)     0.00040       0.50148
   425    H   27  S      Ryd( 4S)     0.00067       1.71089
   426    H   27  S      Ryd( 3S)     0.00008       1.16643
   427    H   27  px     Ryd( 2p)     0.00007       1.99023
   428    H   27  py     Ryd( 2p)     0.00008       2.06190
   429    H   27  pz     Ryd( 2p)     0.00017       2.81401
 
   430    H   28  S      Val( 1S)     0.39979       0.12923
   431    H   28  S      Ryd( 2S)     0.00029       0.79724
   432    H   28  S      Ryd( 3S)     0.00048       1.09223
   433    H   28  S      Ryd( 4S)     0.00008       1.36613
   434    H   28  px     Ryd( 2p)     0.00007       1.95710
   435    H   28  py     Ryd( 2p)     0.00016       2.66208
   436    H   28  pz     Ryd( 2p)     0.00009       2.22404
 
   437    H   29  S      Val( 1S)     0.39470       0.14225
   438    H   29  S      Ryd( 2S)     0.00022       0.49794
   439    H   29  S      Ryd( 3S)     0.00034       1.23452
   440    H   29  S      Ryd( 4S)     0.00009       1.49238
   441    H   29  px     Ryd( 2p)     0.00007       1.94496
   442    H   29  py     Ryd( 2p)     0.00006       1.89826
   443    H   29  pz     Ryd( 2p)     0.00014       2.81846
 
   444    H   30  S      Val( 1S)     0.40152       0.12965
   445    H   30  S      Ryd( 2S)     0.00018       0.46189
   446    H   30  S      Ryd( 3S)     0.00036       1.03154
   447    H   30  S      Ryd( 4S)     0.00007       1.64839
   448    H   30  px     Ryd( 2p)     0.00012       2.53293
   449    H   30  py     Ryd( 2p)     0.00009       2.16772
   450    H   30  pz     Ryd( 2p)     0.00007       1.92936
 
   451    H   31  S      Val( 1S)     0.39665       0.13914
   452    H   31  S      Ryd( 2S)     0.00050       0.60216
   453    H   31  S      Ryd( 4S)     0.00037       1.38249
   454    H   31  S      Ryd( 3S)     0.00005       1.28923
   455    H   31  px     Ryd( 2p)     0.00011       2.45325
   456    H   31  py     Ryd( 2p)     0.00009       2.27756
   457    H   31  pz     Ryd( 2p)     0.00007       1.95828
 
   458    H   32  S      Val( 1S)     0.39901       0.12536
   459    H   32  S      Ryd( 2S)     0.00022       0.44841
   460    H   32  S      Ryd( 3S)     0.00041       0.96230
   461    H   32  S      Ryd( 4S)     0.00009       1.64942
   462    H   32  px     Ryd( 2p)     0.00006       1.87114
   463    H   32  py     Ryd( 2p)     0.00013       2.59517
   464    H   32  pz     Ryd( 2p)     0.00009       2.10699
 
   465    H   33  S      Val( 1S)     0.39866       0.12503
   466    H   33  S      Ryd( 2S)     0.00020       0.38143
   467    H   33  S      Ryd( 3S)     0.00038       0.94471
   468    H   33  S      Ryd( 4S)     0.00008       1.71198
   469    H   33  px     Ryd( 2p)     0.00011       2.56182
   470    H   33  py     Ryd( 2p)     0.00009       2.07701
   471    H   33  pz     Ryd( 2p)     0.00007       1.95498
 
   472    H   34  S      Val( 1S)     0.39927       0.12600
   473    H   34  S      Ryd( 2S)     0.00018       0.45350
   474    H   34  S      Ryd( 3S)     0.00039       1.03101
   475    H   34  S      Ryd( 4S)     0.00007       1.63285
   476    H   34  px     Ryd( 2p)     0.00006       1.88178
   477    H   34  py     Ryd( 2p)     0.00006       1.93081
   478    H   34  pz     Ryd( 2p)     0.00015       2.76340
 
   479    H   35  S      Val( 1S)     0.39939       0.13326
   480    H   35  S      Ryd( 2S)     0.00024       0.56819
   481    H   35  S      Ryd( 3S)     0.00033       1.08354
   482    H   35  S      Ryd( 4S)     0.00008       1.53594
   483    H   35  px     Ryd( 2p)     0.00007       1.92589
   484    H   35  py     Ryd( 2p)     0.00012       2.51059
   485    H   35  pz     Ryd( 2p)     0.00008       2.18801
 
   486    H   36  S      Val( 1S)     0.39277       0.14535
   487    H   36  S      Ryd( 2S)     0.00045       0.62954
   488    H   36  S      Ryd( 4S)     0.00039       1.49025
   489    H   36  S      Ryd( 3S)     0.00008       1.20266
   490    H   36  px     Ryd( 2p)     0.00012       2.52088
   491    H   36  py     Ryd( 2p)     0.00009       2.18281
   492    H   36  pz     Ryd( 2p)     0.00006       1.99779
 
   493    H   37  S      Val( 1S)     0.40205       0.12868
   494    H   37  S      Ryd( 2S)     0.00021       0.41592
   495    H   37  S      Ryd( 3S)     0.00036       0.98591
   496    H   37  S      Ryd( 4S)     0.00008       1.68719
   497    H   37  px     Ryd( 2p)     0.00012       2.46964
   498    H   37  py     Ryd( 2p)     0.00009       2.19184
   499    H   37  pz     Ryd( 2p)     0.00007       1.95724

 WARNING:  Population inversion found on atom  C    2
           Population inversion found on atom  C    3
           Population inversion found on atom  N    7
           Population inversion found on atom  N    8
           Population inversion found on atom  C    9
           Population inversion found on atom  O   10
           Population inversion found on atom  C   12
           Population inversion found on atom  C   15
           Population inversion found on atom  C   16
           Population inversion found on atom  H   17
           Population inversion found on atom  H   18
           Population inversion found on atom  H   19
           Population inversion found on atom  H   20
           Population inversion found on atom  H   21
           Population inversion found on atom  H   22
           Population inversion found on atom  H   23
           Population inversion found on atom  H   24
           Population inversion found on atom  H   25
           Population inversion found on atom  H   26
           Population inversion found on atom  H   27
           Population inversion found on atom  H   28
           Population inversion found on atom  H   29
           Population inversion found on atom  H   30
           Population inversion found on atom  H   31
           Population inversion found on atom  H   32
           Population inversion found on atom  H   33
           Population inversion found on atom  H   34
           Population inversion found on atom  H   35
           Population inversion found on atom  H   36
           Population inversion found on atom  H   37


 Summary of Natural Population Analysis:                  
                                                          
                                       Natural Population 
                Natural  -----------------------------------------------
    Atom  No    Charge         Core      Valence    Rydberg      Total
 -----------------------------------------------------------------------
      C    1   -0.28626      0.99967     2.28152    0.00507     3.28626
      C    2   -0.19396      0.99962     2.18487    0.00946     3.19396
      C    3   -0.15291      0.99953     2.14147    0.01191     3.15291
      C    4   -0.19091      0.99960     2.18129    0.01002     3.19091
      C    5   -0.09143      0.99958     2.07989    0.01196     3.09143
      N    6   -0.20289      0.99970     2.68910    0.01409     3.70289
      N    7    0.13280      0.99970     2.35232    0.01518     3.36720
      N    8   -0.02816      0.99982     2.51527    0.01307     3.52816
      C    9    0.42222      0.99964     1.55189    0.02625     2.57778
      O   10   -0.31213      0.99987     3.30700    0.00526     4.31213
      O   11   -0.28769      0.99985     3.27702    0.01081     4.28769
      C   12   -0.01452      0.99948     2.00361    0.01143     3.01452
      C   13   -0.06234      0.99959     2.05139    0.01136     3.06234
      C   14   -0.28552      0.99963     2.27964    0.00626     3.28552
      C   15   -0.28305      0.99963     2.27764    0.00578     3.28305
      C   16   -0.28504      0.99963     2.27934    0.00607     3.28504
      H   17    0.09839      0.00000     0.40017    0.00144     0.40161
      H   18    0.09985      0.00000     0.39934    0.00081     0.40015
      H   19    0.09641      0.00000     0.40237    0.00122     0.40359
      H   20    0.10135      0.00000     0.39712    0.00153     0.39865
      H   21    0.10050      0.00000     0.39813    0.00137     0.39950
      H   22    0.11104      0.00000     0.38736    0.00159     0.38896
      H   23    0.10969      0.00000     0.38901    0.00130     0.39031
      H   24    0.10430      0.00000     0.39440    0.00130     0.39570
      H   25    0.09988      0.00000     0.39833    0.00180     0.40012
      H   26    0.09237      0.00000     0.40603    0.00160     0.40763
      H   27    0.10189      0.00000     0.39664    0.00147     0.39811
      H   28    0.09904      0.00000     0.39979    0.00117     0.40096
      H   29    0.10439      0.00000     0.39470    0.00091     0.39561
      H   30    0.09759      0.00000     0.40152    0.00089     0.40241
      H   31    0.10216      0.00000     0.39665    0.00119     0.39784
      H   32    0.09999      0.00000     0.39901    0.00100     0.40001
      H   33    0.10039      0.00000     0.39866    0.00094     0.39961
      H   34    0.09981      0.00000     0.39927    0.00091     0.40019
      H   35    0.09969      0.00000     0.39939    0.00093     0.40031
      H   36    0.10603      0.00000     0.39277    0.00120     0.39397
      H   37    0.09701      0.00000     0.40205    0.00093     0.40299
 =======================================================================
   * Total *    0.00000     15.99451    45.80596    0.19953    62.00000

                                 Natural Population      
 --------------------------------------------------------
   Core                      15.99451 ( 99.9657% of  16)
   Valence                   45.80596 ( 99.5782% of  46)
   Natural Minimal Basis     61.80047 ( 99.6782% of  62)
   Natural Rydberg Basis      0.19953 (  0.3218% of  62)
 --------------------------------------------------------

    Atom  No          Natural Electron Configuration
 ----------------------------------------------------------------------------
      C    1      [core]2S( 0.54)2p( 1.74)
      C    2      [core]2S( 0.51)2p( 1.68)
      C    3      [core]2S( 0.49)2p( 1.65)3p( 0.01)
      C    4      [core]2S( 0.51)2p( 1.67)3p( 0.01)
      C    5      [core]2S( 0.51)2p( 1.57)
      N    6      [core]2S( 0.69)2p( 1.99)3p( 0.01)
      N    7      [core]2S( 0.53)2p( 1.83)3d( 0.01)4p( 0.01)
      N    8      [core]2S( 0.81)2p( 1.71)
      C    9      [core]2S( 0.39)2p( 1.17)3d( 0.01)4p( 0.01)
      O   10      [core]2S( 0.85)2p( 2.46)
      O   11      [core]2S( 0.81)2p( 2.47)3p( 0.01)
      C   12      [core]2S( 0.50)2p( 1.50)4p( 0.01)
      C   13      [core]2S( 0.47)2p( 1.59)
      C   14      [core]2S( 0.53)2p( 1.74)
      C   15      [core]2S( 0.53)2p( 1.74)
      C   16      [core]2S( 0.54)2p( 1.74)
      H   17            1S( 0.40)
      H   18            1S( 0.40)
      H   19            1S( 0.40)
      H   20            1S( 0.40)
      H   21            1S( 0.40)
      H   22            1S( 0.39)
      H   23            1S( 0.39)
      H   24            1S( 0.39)
      H   25            1S( 0.40)
      H   26            1S( 0.41)
      H   27            1S( 0.40)
      H   28            1S( 0.40)
      H   29            1S( 0.39)
      H   30            1S( 0.40)
      H   31            1S( 0.40)
      H   32            1S( 0.40)
      H   33            1S( 0.40)
      H   34            1S( 0.40)
      H   35            1S( 0.40)
      H   36            1S( 0.39)
      H   37            1S( 0.40)


 NBO analysis skipped by request.
 1\1\GINC-NODE371\SP\UB3LYP\6-311++G(d,p)\C11H21N3O2(1-,2)\VSC10255\10-
 Dec-2020\0\\# B3LYP/6-311++G(d,p) empiricaldispersion=gd3bj scf=xqc po
 p=npa geom=check\\CID_150283008_JID_6439_Energie_anion\\-1,2\C,0,0.789
 3979818,0.0249533902,-0.0408292759\C,0,0.25925581,1.331549209,0.556006
 663\C,0,0.7740291639,2.5837159459,-0.1722956893\C,0,0.4364990912,2.638
 2918317,-1.6808275051\C,0,-1.0438623572,2.4676399139,-2.0237359517\N,0
 ,-1.8572304805,3.5815699416,-1.4782523157\N,0,-2.6796916082,3.28626754
 68,-0.6113304177\N,0,-3.4746204892,3.1407095966,0.1970542338\C,0,0.366
 8236054,3.9040686887,0.4779715173\O,0,0.866612244,4.9682040097,0.18305
 50778\O,0,-0.5988688582,3.7425778215,1.4074308788\C,0,-1.0815799332,4.
 9209079175,2.0913993988\C,0,-0.5757825314,4.9712341354,3.5392136805\C,
 0,0.9598574066,5.0341596276,3.5653992228\C,0,-1.1593882895,6.243565059
 6,4.1761492196\C,0,-1.0632100964,3.7309498201,4.3052542042\H,0,0.42198
 74496,-0.1428516367,-1.0594888381\H,0,0.4768805588,-0.83217517,0.56475
 81363\H,0,1.8855798787,0.0231031791,-0.0811153977\H,0,-0.8359113522,1.
 3232479564,0.5685349036\H,0,0.5595379187,1.3983061383,1.6076647743\H,0
 ,1.8707592998,2.5877173142,-0.1142092138\H,0,0.7884901645,3.5968001431
 ,-2.0745348677\H,0,0.9908940813,1.8505236914,-2.2038758118\H,0,-1.1662
 308635,2.4941785093,-3.1113686554\H,0,-1.4262337044,1.5032534367,-1.67
 01234813\H,0,-0.7661084227,5.8024260886,1.5298367522\H,0,-2.171297678,
 4.8350147231,2.0665055606\H,0,1.3337614434,5.8805409181,2.980053988\H,
 0,1.3190854436,5.1393436323,4.5955715258\H,0,1.4001159317,4.1207275756
 ,3.1517229746\H,0,-2.255809859,6.2360071928,4.1499750232\H,0,-0.850849
 9307,6.3224704371,5.2245826691\H,0,-0.8131621784,7.1442018281,3.655451
 7547\H,0,-2.1586412902,3.682601047,4.3223779398\H,0,-0.6932632401,2.81
 26606252,3.8382873036\H,0,-0.7096443102,3.7538179142,5.3425600186\\Ver
 sion=ES64L-G16RevA.03\State=2-A\HF=-746.7508702\S2=0.751251\S2-1=0.\S2
 A=0.750001\RMSD=2.626e-09\Dipole=-0.1543373,0.9916432,1.2770056\Quadru
 pole=7.6664222,0.9812441,-8.6476663,3.7762718,0.186679,-11.7820519\PG=
 C01 [X(C11H21N3O2)]\\@


 THE PROGRESS OF RIVERS TO THE SEA IS NOT AS RAPID
 AS THAT OF MAN TO ERROR.
                                              -- VOLTAIRE
 Job cpu time:       0 days  1 hours  2 minutes 42.5 seconds.
 Elapsed time:       0 days  0 hours 16 minutes  2.8 seconds.
 File lengths (MBytes):  RWF=    292 Int=      0 D2E=      0 Chk=     28 Scr=      8
 Normal termination of Gaussian 16 at Thu Dec 10 23:44:28 2020.
