 Entering Gaussian System, Link 0=g16
 Initial command:
 /apps/brussel/CO7/skylake/software/Gaussian/G16.A.03-intel-2017b/g16/l1.exe "/scratch/brussel/102/vsc10255/3555211[7915].master01.hydra.brussel.vsc/Gau-233326.inp" -scrdir="/scratch/brussel/102/vsc10255/3555211[7915].master01.hydra.brussel.vsc/"
 Entering Link 1 = /apps/brussel/CO7/skylake/software/Gaussian/G16.A.03-intel-2017b/g16/l1.exe.bin PID=    233327.
  
 Copyright (c) 1988,1990,1992,1993,1995,1998,2003,2009,2016,
            Gaussian, Inc.  All Rights Reserved.
  
 This is part of the Gaussian(R) 16 program.  It is based on
 the Gaussian(R) 09 system (copyright 2009, Gaussian, Inc.),
 the Gaussian(R) 03 system (copyright 2003, Gaussian, Inc.),
 the Gaussian(R) 98 system (copyright 1998, Gaussian, Inc.),
 the Gaussian(R) 94 system (copyright 1995, Gaussian, Inc.),
 the Gaussian 92(TM) system (copyright 1992, Gaussian, Inc.),
 the Gaussian 90(TM) system (copyright 1990, Gaussian, Inc.),
 the Gaussian 88(TM) system (copyright 1988, Gaussian, Inc.),
 the Gaussian 86(TM) system (copyright 1986, Carnegie Mellon
 University), and the Gaussian 82(TM) system (copyright 1983,
 Carnegie Mellon University). Gaussian is a federally registered
 trademark of Gaussian, Inc.
  
 This software contains proprietary and confidential information,
 including trade secrets, belonging to Gaussian, Inc.
  
 This software is provided under written license and may be
 used, copied, transmitted, or stored only in accord with that
 written license.
  
 The following legend is applicable only to US Government
 contracts under FAR:
  
                    RESTRICTED RIGHTS LEGEND
  
 Use, reproduction and disclosure by the US Government is
 subject to restrictions as set forth in subparagraphs (a)
 and (c) of the Commercial Computer Software - Restricted
 Rights clause in FAR 52.227-19.
  
 Gaussian, Inc.
 340 Quinnipiac St., Bldg. 40, Wallingford CT 06492
  
  
 ---------------------------------------------------------------
 Warning -- This program may not be used in any manner that
 competes with the business of Gaussian, Inc. or will provide
 assistance to any competitor of Gaussian, Inc.  The licensee
 of this program is prohibited from giving any competitor of
 Gaussian, Inc. access to this program.  By using this program,
 the user acknowledges that Gaussian, Inc. is engaged in the
 business of creating and licensing software in the field of
 computational chemistry and represents and warrants to the
 licensee that it is not a competitor of Gaussian, Inc. and that
 it will not use this program in any manner prohibited above.
 ---------------------------------------------------------------
  

 Cite this work as:
 Gaussian 16, Revision A.03,
 M. J. Frisch, G. W. Trucks, H. B. Schlegel, G. E. Scuseria, 
 M. A. Robb, J. R. Cheeseman, G. Scalmani, V. Barone, 
 G. A. Petersson, H. Nakatsuji, X. Li, M. Caricato, A. V. Marenich, 
 J. Bloino, B. G. Janesko, R. Gomperts, B. Mennucci, H. P. Hratchian, 
 J. V. Ortiz, A. F. Izmaylov, J. L. Sonnenberg, D. Williams-Young, 
 F. Ding, F. Lipparini, F. Egidi, J. Goings, B. Peng, A. Petrone, 
 T. Henderson, D. Ranasinghe, V. G. Zakrzewski, J. Gao, N. Rega, 
 G. Zheng, W. Liang, M. Hada, M. Ehara, K. Toyota, R. Fukuda, 
 J. Hasegawa, M. Ishida, T. Nakajima, Y. Honda, O. Kitao, H. Nakai, 
 T. Vreven, K. Throssell, J. A. Montgomery, Jr., J. E. Peralta, 
 F. Ogliaro, M. J. Bearpark, J. J. Heyd, E. N. Brothers, K. N. Kudin, 
 V. N. Staroverov, T. A. Keith, R. Kobayashi, J. Normand, 
 K. Raghavachari, A. P. Rendell, J. C. Burant, S. S. Iyengar, 
 J. Tomasi, M. Cossi, J. M. Millam, M. Klene, C. Adamo, R. Cammi, 
 J. W. Ochterski, R. L. Martin, K. Morokuma, O. Farkas, 
 J. B. Foresman, and D. J. Fox, Gaussian, Inc., Wallingford CT, 2016.
 
 ******************************************
 Gaussian 16:  ES64L-G16RevA.03 25-Dec-2016
                11-Dec-2020 
 ******************************************
 %chk=JID_7915.chk
 %mem=8GB
 %nprocshared=4
 Will use up to    4 processors via shared memory.
 -----------------------------------------------------------
 # opt freq B3LYP/6-31G(d) empiricaldispersion=gd3bj scf=xqc
 -----------------------------------------------------------
 1/18=20,19=15,26=3,38=1/1,3;
 2/9=110,12=2,17=6,18=5,40=1/2;
 3/5=1,6=6,7=1,11=2,25=1,30=1,71=1,74=-5,124=41/1,2,3;
 4//1;
 5/5=2,8=3,13=1,38=5/2,8;
 6/7=2,8=2,9=2,10=2,28=1/1;
 7//1,2,3,16;
 1/18=20,19=15,26=3/3(2);
 2/9=110/2;
 99//99;
 2/9=110/2;
 3/5=1,6=6,7=1,11=2,25=1,30=1,71=1,74=-5,124=41/1,2,3;
 4/5=5,16=3,69=1/1;
 5/5=2,8=3,13=1,38=5/2,8;
 7//1,2,3,16;
 1/18=20,19=15,26=3/3(-5);
 2/9=110/2;
 6/7=2,8=2,9=2,10=2,19=2,28=1/1;
 99/9=1/99;
 ------------------------------
 CID_61346764_JID_7915_neutraal
 ------------------------------
 Symbolic Z-matrix:
 Charge =  0 Multiplicity = 1
 C                     1.0437   -0.08357  -0.03326 
 C                     0.37011   0.19461   1.30124 
 C                     0.93667   1.4019    1.97676 
 C                     1.98254   1.44607   2.88262 
 S                     2.25537   3.06402   3.3761 
 C                     0.97773   3.59782   2.3466 
 N                     0.37413   2.63224   1.67783 
 C                     0.59835   5.07655   2.23901 
 C                    -0.15076   5.53974   3.47649 
 C                     0.33223   5.86609   4.73383 
 C                    -0.70024   6.25298   5.63614 
 C                    -1.9425    6.20688   5.04738 
 S                    -1.86363   5.69864   3.41882 
 N                     1.77819   5.91504   1.93604 
 C                     1.48256   7.17191   1.25923 
 C                     1.14748   8.32383   2.19498 
 C                     2.81323   0.34247   3.43435 
 H                     0.92885   0.76369  -0.71793 
 H                     0.60065  -0.9658   -0.50585 
 H                     2.11572  -0.26796   0.09462 
 H                    -0.70418   0.34354   1.13908 
 H                     0.46775  -0.68178   1.9522 
 H                    -0.07486   5.12935   1.3711 
 H                     1.38145   5.82869   5.00055 
 H                    -0.53965   6.54641   6.6663 
 H                    -2.89745   6.44356   5.4962 
 H                     2.32564   6.06024   2.77897 
 H                     2.38569   7.45265   0.70444 
 H                     0.69691   7.05133   0.50448 
 H                     1.90721   8.43753   2.97531 
 H                     1.10927   9.2614    1.6302 
 H                     0.17375   8.19289   2.67255 
 H                     3.84732   0.66139   3.60227 
 H                     2.39917  -0.00258   4.3873 
 H                     2.84302  -0.50977   2.74811 
 

 GradGradGradGradGradGradGradGradGradGradGradGradGradGradGradGradGradGrad
 Berny optimization.
 Initialization pass.
                           ----------------------------
                           !    Initial Parameters    !
                           ! (Angstroms and Degrees)  !
 --------------------------                            --------------------------
 ! Name  Definition              Value          Derivative Info.                !
 --------------------------------------------------------------------------------
 ! R1    R(1,2)                  1.5205         estimate D2E/DX2                !
 ! R2    R(1,18)                 1.0954         estimate D2E/DX2                !
 ! R3    R(1,19)                 1.0945         estimate D2E/DX2                !
 ! R4    R(1,20)                 1.0953         estimate D2E/DX2                !
 ! R5    R(2,3)                  1.4949         estimate D2E/DX2                !
 ! R6    R(2,21)                 1.0966         estimate D2E/DX2                !
 ! R7    R(2,22)                 1.0961         estimate D2E/DX2                !
 ! R8    R(3,4)                  1.3843         estimate D2E/DX2                !
 ! R9    R(3,7)                  1.3855         estimate D2E/DX2                !
 ! R10   R(4,5)                  1.7134         estimate D2E/DX2                !
 ! R11   R(4,17)                 1.4874         estimate D2E/DX2                !
 ! R12   R(5,6)                  1.7254         estimate D2E/DX2                !
 ! R13   R(6,7)                  1.3206         estimate D2E/DX2                !
 ! R14   R(6,8)                  1.5304         estimate D2E/DX2                !
 ! R15   R(8,9)                  1.5189         estimate D2E/DX2                !
 ! R16   R(8,14)                 1.4788         estimate D2E/DX2                !
 ! R17   R(8,23)                 1.0997         estimate D2E/DX2                !
 ! R18   R(9,10)                 1.3859         estimate D2E/DX2                !
 ! R19   R(9,13)                 1.7212         estimate D2E/DX2                !
 ! R20   R(10,11)                1.4247         estimate D2E/DX2                !
 ! R21   R(10,24)                1.0832         estimate D2E/DX2                !
 ! R22   R(11,12)                1.3755         estimate D2E/DX2                !
 ! R23   R(11,25)                1.0831         estimate D2E/DX2                !
 ! R24   R(12,13)                1.7078         estimate D2E/DX2                !
 ! R25   R(12,26)                1.0814         estimate D2E/DX2                !
 ! R26   R(14,15)                1.4578         estimate D2E/DX2                !
 ! R27   R(14,27)                1.0155         estimate D2E/DX2                !
 ! R28   R(15,16)                1.5215         estimate D2E/DX2                !
 ! R29   R(15,28)                1.0965         estimate D2E/DX2                !
 ! R30   R(15,29)                1.0961         estimate D2E/DX2                !
 ! R31   R(16,30)                1.095          estimate D2E/DX2                !
 ! R32   R(16,31)                1.0952         estimate D2E/DX2                !
 ! R33   R(16,32)                1.0924         estimate D2E/DX2                !
 ! R34   R(17,33)                1.0951         estimate D2E/DX2                !
 ! R35   R(17,34)                1.0948         estimate D2E/DX2                !
 ! R36   R(17,35)                1.0946         estimate D2E/DX2                !
 ! A1    A(2,1,18)             111.139          estimate D2E/DX2                !
 ! A2    A(2,1,19)             110.31           estimate D2E/DX2                !
 ! A3    A(2,1,20)             111.2186         estimate D2E/DX2                !
 ! A4    A(18,1,19)            108.1281         estimate D2E/DX2                !
 ! A5    A(18,1,20)            107.8081         estimate D2E/DX2                !
 ! A6    A(19,1,20)            108.1145         estimate D2E/DX2                !
 ! A7    A(1,2,3)              112.1136         estimate D2E/DX2                !
 ! A8    A(1,2,21)             109.2107         estimate D2E/DX2                !
 ! A9    A(1,2,22)             109.6031         estimate D2E/DX2                !
 ! A10   A(3,2,21)             109.1723         estimate D2E/DX2                !
 ! A11   A(3,2,22)             110.0962         estimate D2E/DX2                !
 ! A12   A(21,2,22)            106.4801         estimate D2E/DX2                !
 ! A13   A(2,3,4)              127.4291         estimate D2E/DX2                !
 ! A14   A(2,3,7)              117.7607         estimate D2E/DX2                !
 ! A15   A(4,3,7)              114.8097         estimate D2E/DX2                !
 ! A16   A(3,4,5)              109.8097         estimate D2E/DX2                !
 ! A17   A(3,4,17)             129.8655         estimate D2E/DX2                !
 ! A18   A(5,4,17)             120.3226         estimate D2E/DX2                !
 ! A19   A(4,5,6)               90.1365         estimate D2E/DX2                !
 ! A20   A(5,6,7)              114.4817         estimate D2E/DX2                !
 ! A21   A(5,6,8)              121.6296         estimate D2E/DX2                !
 ! A22   A(7,6,8)              123.8887         estimate D2E/DX2                !
 ! A23   A(3,7,6)              110.7602         estimate D2E/DX2                !
 ! A24   A(6,8,9)              111.0779         estimate D2E/DX2                !
 ! A25   A(6,8,14)             111.3757         estimate D2E/DX2                !
 ! A26   A(6,8,23)             104.6929         estimate D2E/DX2                !
 ! A27   A(9,8,14)             112.7984         estimate D2E/DX2                !
 ! A28   A(9,8,23)             109.0531         estimate D2E/DX2                !
 ! A29   A(14,8,23)            107.428          estimate D2E/DX2                !
 ! A30   A(8,9,10)             129.7232         estimate D2E/DX2                !
 ! A31   A(8,9,13)             119.4499         estimate D2E/DX2                !
 ! A32   A(10,9,13)            110.8228         estimate D2E/DX2                !
 ! A33   A(9,10,11)            112.7039         estimate D2E/DX2                !
 ! A34   A(9,10,24)            123.5605         estimate D2E/DX2                !
 ! A35   A(11,10,24)           123.7355         estimate D2E/DX2                !
 ! A36   A(10,11,12)           111.9811         estimate D2E/DX2                !
 ! A37   A(10,11,25)           124.6446         estimate D2E/DX2                !
 ! A38   A(12,11,25)           123.3738         estimate D2E/DX2                !
 ! A39   A(11,12,13)           112.1128         estimate D2E/DX2                !
 ! A40   A(11,12,26)           127.7747         estimate D2E/DX2                !
 ! A41   A(13,12,26)           120.1119         estimate D2E/DX2                !
 ! A42   A(9,13,12)             92.3774         estimate D2E/DX2                !
 ! A43   A(8,14,15)            114.972          estimate D2E/DX2                !
 ! A44   A(8,14,27)            109.9443         estimate D2E/DX2                !
 ! A45   A(15,14,27)           111.8023         estimate D2E/DX2                !
 ! A46   A(14,15,16)           114.3231         estimate D2E/DX2                !
 ! A47   A(14,15,28)           106.7756         estimate D2E/DX2                !
 ! A48   A(14,15,29)           111.7275         estimate D2E/DX2                !
 ! A49   A(16,15,28)           107.3822         estimate D2E/DX2                !
 ! A50   A(16,15,29)           110.4219         estimate D2E/DX2                !
 ! A51   A(28,15,29)           105.6727         estimate D2E/DX2                !
 ! A52   A(15,16,30)           111.3525         estimate D2E/DX2                !
 ! A53   A(15,16,31)           109.7954         estimate D2E/DX2                !
 ! A54   A(15,16,32)           111.9893         estimate D2E/DX2                !
 ! A55   A(30,16,31)           107.6263         estimate D2E/DX2                !
 ! A56   A(30,16,32)           108.6232         estimate D2E/DX2                !
 ! A57   A(31,16,32)           107.2748         estimate D2E/DX2                !
 ! A58   A(4,17,33)            111.6026         estimate D2E/DX2                !
 ! A59   A(4,17,34)            110.2119         estimate D2E/DX2                !
 ! A60   A(4,17,35)            111.1207         estimate D2E/DX2                !
 ! A61   A(33,17,34)           108.3878         estimate D2E/DX2                !
 ! A62   A(33,17,35)           107.2882         estimate D2E/DX2                !
 ! A63   A(34,17,35)           108.0958         estimate D2E/DX2                !
 ! D1    D(18,1,2,3)           -59.5251         estimate D2E/DX2                !
 ! D2    D(18,1,2,21)           61.6044         estimate D2E/DX2                !
 ! D3    D(18,1,2,22)          177.8992         estimate D2E/DX2                !
 ! D4    D(19,1,2,3)          -179.4463         estimate D2E/DX2                !
 ! D5    D(19,1,2,21)          -58.3168         estimate D2E/DX2                !
 ! D6    D(19,1,2,22)           57.978          estimate D2E/DX2                !
 ! D7    D(20,1,2,3)            60.5978         estimate D2E/DX2                !
 ! D8    D(20,1,2,21)         -178.2727         estimate D2E/DX2                !
 ! D9    D(20,1,2,22)          -61.9779         estimate D2E/DX2                !
 ! D10   D(1,2,3,4)            -91.2979         estimate D2E/DX2                !
 ! D11   D(1,2,3,7)             88.4364         estimate D2E/DX2                !
 ! D12   D(21,2,3,4)           147.5504         estimate D2E/DX2                !
 ! D13   D(21,2,3,7)           -32.7152         estimate D2E/DX2                !
 ! D14   D(22,2,3,4)            30.9976         estimate D2E/DX2                !
 ! D15   D(22,2,3,7)          -149.2681         estimate D2E/DX2                !
 ! D16   D(2,3,4,5)           -179.8314         estimate D2E/DX2                !
 ! D17   D(2,3,4,17)            -0.3807         estimate D2E/DX2                !
 ! D18   D(7,3,4,5)              0.4276         estimate D2E/DX2                !
 ! D19   D(7,3,4,17)           179.8783         estimate D2E/DX2                !
 ! D20   D(2,3,7,6)           -179.936          estimate D2E/DX2                !
 ! D21   D(4,3,7,6)             -0.1685         estimate D2E/DX2                !
 ! D22   D(3,4,5,6)             -0.4248         estimate D2E/DX2                !
 ! D23   D(17,4,5,6)          -179.9364         estimate D2E/DX2                !
 ! D24   D(3,4,17,33)          145.3479         estimate D2E/DX2                !
 ! D25   D(3,4,17,34)          -94.1662         estimate D2E/DX2                !
 ! D26   D(3,4,17,35)           25.6381         estimate D2E/DX2                !
 ! D27   D(5,4,17,33)          -35.2507         estimate D2E/DX2                !
 ! D28   D(5,4,17,34)           85.2352         estimate D2E/DX2                !
 ! D29   D(5,4,17,35)         -154.9606         estimate D2E/DX2                !
 ! D30   D(4,5,6,7)              0.3569         estimate D2E/DX2                !
 ! D31   D(4,5,6,8)           -179.655          estimate D2E/DX2                !
 ! D32   D(5,6,7,3)             -0.175          estimate D2E/DX2                !
 ! D33   D(8,6,7,3)            179.8372         estimate D2E/DX2                !
 ! D34   D(5,6,8,9)            -74.286          estimate D2E/DX2                !
 ! D35   D(5,6,8,14)            52.3558         estimate D2E/DX2                !
 ! D36   D(5,6,8,23)           168.1498         estimate D2E/DX2                !
 ! D37   D(7,6,8,9)            105.7009         estimate D2E/DX2                !
 ! D38   D(7,6,8,14)          -127.6573         estimate D2E/DX2                !
 ! D39   D(7,6,8,23)           -11.8633         estimate D2E/DX2                !
 ! D40   D(6,8,9,10)            77.7332         estimate D2E/DX2                !
 ! D41   D(6,8,9,13)          -101.4599         estimate D2E/DX2                !
 ! D42   D(14,8,9,10)          -48.1211         estimate D2E/DX2                !
 ! D43   D(14,8,9,13)          132.6858         estimate D2E/DX2                !
 ! D44   D(23,8,9,10)         -167.3885         estimate D2E/DX2                !
 ! D45   D(23,8,9,13)           13.4184         estimate D2E/DX2                !
 ! D46   D(6,8,14,15)          154.5262         estimate D2E/DX2                !
 ! D47   D(6,8,14,27)          -78.2565         estimate D2E/DX2                !
 ! D48   D(9,8,14,15)          -79.7801         estimate D2E/DX2                !
 ! D49   D(9,8,14,27)           47.4373         estimate D2E/DX2                !
 ! D50   D(23,8,14,15)          40.425          estimate D2E/DX2                !
 ! D51   D(23,8,14,27)         167.6423         estimate D2E/DX2                !
 ! D52   D(8,9,10,11)         -179.7001         estimate D2E/DX2                !
 ! D53   D(8,9,10,24)            0.1908         estimate D2E/DX2                !
 ! D54   D(13,9,10,11)          -0.4518         estimate D2E/DX2                !
 ! D55   D(13,9,10,24)         179.4392         estimate D2E/DX2                !
 ! D56   D(8,9,13,12)          179.7553         estimate D2E/DX2                !
 ! D57   D(10,9,13,12)           0.4192         estimate D2E/DX2                !
 ! D58   D(9,10,11,12)           0.2474         estimate D2E/DX2                !
 ! D59   D(9,10,11,25)        -179.9992         estimate D2E/DX2                !
 ! D60   D(24,10,11,12)       -179.6434         estimate D2E/DX2                !
 ! D61   D(24,10,11,25)          0.11           estimate D2E/DX2                !
 ! D62   D(10,11,12,13)          0.0742         estimate D2E/DX2                !
 ! D63   D(10,11,12,26)        179.7895         estimate D2E/DX2                !
 ! D64   D(25,11,12,13)       -179.6829         estimate D2E/DX2                !
 ! D65   D(25,11,12,26)          0.0324         estimate D2E/DX2                !
 ! D66   D(11,12,13,9)          -0.2829         estimate D2E/DX2                !
 ! D67   D(26,12,13,9)         179.9772         estimate D2E/DX2                !
 ! D68   D(8,14,15,16)          86.7859         estimate D2E/DX2                !
 ! D69   D(8,14,15,28)        -154.6152         estimate D2E/DX2                !
 ! D70   D(8,14,15,29)         -39.5368         estimate D2E/DX2                !
 ! D71   D(27,14,15,16)        -39.4824         estimate D2E/DX2                !
 ! D72   D(27,14,15,28)         79.1166         estimate D2E/DX2                !
 ! D73   D(27,14,15,29)       -165.805          estimate D2E/DX2                !
 ! D74   D(14,15,16,30)         51.1824         estimate D2E/DX2                !
 ! D75   D(14,15,16,31)        170.2771         estimate D2E/DX2                !
 ! D76   D(14,15,16,32)        -70.664          estimate D2E/DX2                !
 ! D77   D(28,15,16,30)        -67.0722         estimate D2E/DX2                !
 ! D78   D(28,15,16,31)         52.0225         estimate D2E/DX2                !
 ! D79   D(28,15,16,32)        171.0814         estimate D2E/DX2                !
 ! D80   D(29,15,16,30)        178.181          estimate D2E/DX2                !
 ! D81   D(29,15,16,31)        -62.7243         estimate D2E/DX2                !
 ! D82   D(29,15,16,32)         56.3346         estimate D2E/DX2                !
 --------------------------------------------------------------------------------
 Trust Radius=3.00D-01 FncErr=1.00D-07 GrdErr=1.00D-06 EigMax=2.50D+02 EigMin=1.00D-04
 Number of steps in this run=    191 maximum allowed number of steps=    210.
 GradGradGradGradGradGradGradGradGradGradGradGradGradGradGradGradGradGrad

                          Input orientation:                          
 ---------------------------------------------------------------------
 Center     Atomic      Atomic             Coordinates (Angstroms)
 Number     Number       Type             X           Y           Z
 ---------------------------------------------------------------------
      1          6           0        1.043700   -0.083570   -0.033260
      2          6           0        0.370110    0.194610    1.301240
      3          6           0        0.936670    1.401900    1.976760
      4          6           0        1.982540    1.446070    2.882620
      5         16           0        2.255370    3.064020    3.376100
      6          6           0        0.977730    3.597820    2.346600
      7          7           0        0.374130    2.632240    1.677830
      8          6           0        0.598350    5.076550    2.239010
      9          6           0       -0.150760    5.539740    3.476490
     10          6           0        0.332230    5.866090    4.733830
     11          6           0       -0.700240    6.252980    5.636140
     12          6           0       -1.942500    6.206880    5.047380
     13         16           0       -1.863630    5.698640    3.418820
     14          7           0        1.778190    5.915040    1.936040
     15          6           0        1.482560    7.171910    1.259230
     16          6           0        1.147480    8.323830    2.194980
     17          6           0        2.813230    0.342470    3.434350
     18          1           0        0.928850    0.763690   -0.717930
     19          1           0        0.600650   -0.965800   -0.505850
     20          1           0        2.115720   -0.267960    0.094620
     21          1           0       -0.704180    0.343540    1.139080
     22          1           0        0.467750   -0.681780    1.952200
     23          1           0       -0.074860    5.129350    1.371100
     24          1           0        1.381450    5.828690    5.000550
     25          1           0       -0.539650    6.546410    6.666300
     26          1           0       -2.897450    6.443560    5.496200
     27          1           0        2.325640    6.060240    2.778970
     28          1           0        2.385690    7.452650    0.704440
     29          1           0        0.696910    7.051330    0.504480
     30          1           0        1.907210    8.437530    2.975310
     31          1           0        1.109270    9.261400    1.630200
     32          1           0        0.173750    8.192890    2.672550
     33          1           0        3.847320    0.661390    3.602270
     34          1           0        2.399170   -0.002580    4.387300
     35          1           0        2.843020   -0.509770    2.748110
 ---------------------------------------------------------------------
                    Distance matrix (angstroms):
                    1          2          3          4          5
     1  C    0.000000
     2  C    1.520526   0.000000
     3  C    2.501651   1.494947   0.000000
     4  C    3.423971   2.582023   1.384333   0.000000
     5  S    4.795748   4.011579   2.541607   1.713395   0.000000
     6  C    4.384144   3.611623   2.227225   2.434541   1.725450
     7  N    3.278990   2.466551   1.385477   2.333560   2.570918
     8  C    5.655828   4.976429   3.699498   3.938350   2.844111
     9  C    6.735480   5.794259   4.533587   4.654222   3.453799
    10  C    7.657009   6.629464   5.281645   5.068242   3.659712
    11  C    8.679590   7.526012   6.293132   6.155125   4.900294
    12  C    8.619748   7.451786   6.387970   6.538917   5.503895
    13  S    7.335078   6.306194   5.327588   5.758896   4.889704
    14  N    6.356173   5.925283   4.591105   4.572687   3.229518
    15  C    7.382758   7.065552   5.840022   5.972488   4.685417
    16  C    8.698287   8.215065   6.928577   6.962310   5.503459
    17  C    3.916257   3.246668   2.601622   1.487409   2.778747
    18  H    1.095360   2.170965   2.769247   3.813118   4.879780
    19  H    1.094516   2.159925   3.447066   4.382746   5.834988
    20  H    1.095253   2.171879   2.778676   3.275451   4.678643
    21  H    2.147531   1.096620   2.124670   3.387325   4.600457
    22  H    2.152121   1.096057   2.135933   2.772727   4.387949
    23  H    5.513433   4.955254   3.909463   4.481533   3.703456
    24  H    7.772267   6.815465   5.379368   4.904518   3.323548
    25  H    9.557601   8.364024   7.115988   6.833092   5.546584
    26  H    9.418653   8.205121   7.246052   7.457882   6.516722
    27  H    6.877384   6.357153   4.926755   4.628069   3.055951
    28  H    7.690237   7.556314   6.350593   6.402031   5.139535
    29  H    7.163534   6.910589   5.843043   6.223129   5.154963
    30  H    9.077791   8.550492   7.172108   6.992480   5.399672
    31  H    9.492095   9.102816   7.869030   7.963073   6.539819
    32  H    8.750886   8.117360   6.869040   6.988235   5.579734
    33  H    4.651057   4.195666   3.415043   2.147329   2.891036
    34  H    4.624414   3.698613   3.149948   2.129843   3.232219
    35  H    3.339943   2.950401   2.807781   2.140988   3.675824
                    6          7          8          9         10
     6  C    0.000000
     7  N    1.320580   0.000000
     8  C    1.530408   2.517906   0.000000
     9  C    2.514199   3.458937   1.518903   0.000000
    10  C    3.355680   4.449570   2.630270   1.385889   0.000000
    11  C    4.548245   5.471037   3.822410   2.339814   1.424725
    12  C    4.757011   5.431270   3.952279   2.474491   2.321389
    13  S    3.692753   4.176293   2.800052   1.721191   2.564974
    14  N    2.485720   3.579781   1.478810   2.496935   3.149734
    15  C    3.769794   4.691742   2.476354   3.201243   3.886035
    16  C    4.731488   5.767123   3.293677   3.328491   3.626414
    17  C    3.892244   3.778574   5.361534   5.983195   6.193092
    18  H    4.174449   3.088504   5.239607   6.447431   7.490803
    19  H    5.394932   4.214933   6.636585   7.664574   8.614001
    20  H    4.616350   3.735084   5.955217   7.092486   7.894915
    21  H    3.857106   2.586726   5.030687   5.724531   6.670452
    22  H    4.327887   3.326676   5.766947   6.435319   7.115506
    23  H    2.098840   2.555628   1.099667   2.146357   3.466477
    24  H    3.490447   4.719370   2.967333   2.180348   1.083236
    25  H    5.445772   6.406290   4.801711   3.367419   2.226533
    26  H    5.747629   6.309465   4.969771   3.527099   3.368310
    27  H    2.840302   4.095374   2.059790   2.624883   2.798724
    28  H    4.420266   5.313211   3.345944   4.216286   4.792688
    29  H    3.924156   4.583590   2.630221   3.440391   4.407401
    30  H    4.968098   6.142897   3.681228   3.589374   3.490739
    31  H    5.710225   6.669967   4.259655   4.341338   4.665237
    32  H    4.676248   5.652473   3.174873   2.791206   3.112554
    33  H    4.293469   4.432919   5.648710   6.308626   6.381629
    34  H    4.375823   4.287691   5.801350   6.168389   6.231662
    35  H    4.529107   4.136804   6.041912   6.788949   7.134335
                   11         12         13         14         15
    11  C    0.000000
    12  C    1.375490   0.000000
    13  S    2.564620   1.707845   0.000000
    14  N    4.466269   4.858924   3.938060   0.000000
    15  C    4.976584   5.197345   4.246333   1.457804   0.000000
    16  C    4.420868   4.708040   4.178061   2.503421   1.521455
    17  C    7.219867   7.720760   7.110683   5.862574   7.289930
    18  H    8.553388   8.432779   7.018859   5.856735   6.729119
    19  H    9.566982   9.420898   8.117295   7.395633   8.373506
    20  H    9.008925   9.106181   7.904799   6.460205   7.557041
    21  H    7.425971   7.154509   5.934529   6.151335   7.170977
    22  H    7.938924   7.927363   6.949537   6.725738   7.949245
    23  H    4.454684   4.261946   2.777939   2.090517   2.571016
    24  H    2.217528   3.345723   3.612385   3.091291   3.976423
    25  H    1.083107   2.168910   3.608014   5.305315   5.806633
    26  H    2.209895   1.081382   2.437047   5.900482   6.137336
    27  H    4.166116   4.835722   4.253251   1.015537   2.063057
    28  H    5.940020   6.256700   5.338645   2.061587   1.096472
    29  H    5.378041   5.321421   4.108468   2.123602   1.096099
    30  H    4.318689   4.908110   4.681608   2.731242   2.174179
    31  H    5.326582   5.506406   4.972982   3.426240   2.154747
    32  H    3.648284   3.750009   3.305922   2.881887   2.180105
    33  H    7.488846   8.146338   7.617250   5.887144   7.312236
    34  H    7.092106   7.605472   7.184242   6.435256   7.880248
    35  H    8.162732   8.561614   7.819639   6.562888   7.942029
                   16         17         18         19         20
    16  C    0.000000
    17  C    8.246991   0.000000
    18  H    8.104848   4.579273   0.000000
    19  H    9.689723   4.704493   1.773085   0.000000
    20  H    8.897632   3.465969   1.770085   1.772846   0.000000
    21  H    8.260060   4.200052   2.508346   2.474419   3.068658
    22  H    9.034489   2.957555   3.071090   2.477971   2.517470
    23  H    3.518181   5.959218   4.942719   6.413276   5.963137
    24  H    3.761873   5.882311   7.652456   8.780386   7.859799
    25  H    5.098856   7.757331   9.493324  10.448604   9.832274
    26  H    5.549318   8.607345   9.247535  10.156767   9.967620
    27  H    2.617813   5.775826   6.498675   7.945494   6.877203
    28  H    2.124577   7.628228   6.991974   8.690309   7.749360
    29  H    2.163345   7.620482   6.409563   8.081114   7.466794
    30  H    1.095003   8.158528   8.572341  10.111785   9.172099
    31  H    1.095205   9.257740   8.818012  10.460259   9.704620
    32  H    1.092414   8.317228   8.201131   9.703920   9.055548
    33  H    8.245155   1.095102   5.214601   5.483180   4.020664
    34  H    8.700695   1.094815   5.367717   5.301451   4.310206
    35  H    9.011842   1.094589   4.159228   3.977995   2.761964
                   21         22         23         24         25
    21  H    0.000000
    22  H    1.756663   0.000000
    23  H    4.832583   5.865265   0.000000
    24  H    7.024790   7.246620   3.972760   0.000000
    25  H    8.309803   8.688172   5.501203   2.642058   0.000000
    26  H    7.810581   8.640311   5.168231   4.351174   2.634185
    27  H    6.674557   7.042027   2.934460   2.424980   4.853615
    28  H    7.763740   8.450109   3.449125   4.701309   6.702437
    29  H    6.881876   7.870794   2.245143   4.709362   6.304923
    30  H    8.700791   9.288736   4.176858   3.344259   4.815274
    31  H    9.113618   9.969055   4.306174   4.818386   5.954193
    32  H    8.045781   8.908710   3.337792   3.530944   4.378342
    33  H    5.185025   3.993536   6.350140   5.893784   7.954071
    34  H    4.505720   3.181416   6.446316   5.951096   7.531253
    35  H    3.987448   2.510969   6.496911   6.883731   8.751248
                   26         27         28         29         30
    26  H    0.000000
    27  H    5.900080   0.000000
    28  H    7.203527   2.499217   0.000000
    29  H    6.181106   2.967882   1.747289   0.000000
    30  H    5.780619   2.421805   2.521068   3.080808   0.000000
    31  H    6.240191   3.612015   2.399553   2.514298   1.767708
    32  H    4.523873   3.031526   3.051900   2.505471   1.776625
    33  H    9.083633   5.669296   7.526951   7.768701   8.038996
    34  H    8.416446   6.272951   8.315293   8.229923   8.571534
    35  H    9.426229   6.590422   8.233217   8.173732   8.998974
                   31         32         33         34         35
    31  H    0.000000
    32  H    1.761648   0.000000
    33  H    9.238298   8.431073   0.000000
    34  H    9.751244   8.663636   1.776026   0.000000
    35  H    9.986560   9.103131   1.763469   1.772340   0.000000
 Stoichiometry    C13H18N2S2
 Framework group  C1[X(C13H18N2S2)]
 Deg. of freedom    99
 Full point group                 C1      NOp   1
 Largest Abelian subgroup         C1      NOp   1
 Largest concise Abelian subgroup C1      NOp   1
                         Standard orientation:                         
 ---------------------------------------------------------------------
 Center     Atomic      Atomic             Coordinates (Angstroms)
 Number     Number       Type             X           Y           Z
 ---------------------------------------------------------------------
      1          6           0        4.684811    0.520308   -1.765451
      2          6           0        3.885803   -0.691060   -1.311390
      3          6           0        2.752334   -0.313050   -0.412933
      4          6           0        2.765527   -0.230326    0.968863
      5         16           0        1.218904    0.239381    1.537240
      6          6           0        0.640149    0.313592   -0.086555
      7          7           0        1.538441    0.000592   -1.002542
      8          6           0       -0.802103    0.712732   -0.407094
      9          6           0       -1.767319   -0.411025   -0.071540
     10          6           0       -2.265548   -0.813204    1.157568
     11          6           0       -3.151235   -1.924453    1.054976
     12          6           0       -3.301729   -2.344468   -0.246144
     13         16           0       -2.379660   -1.406241   -1.335297
     14          7           0       -1.164128    1.991717    0.240991
     15          6           0       -2.227524    2.737656   -0.420791
     16          6           0       -3.631991    2.344830    0.012785
     17          6           0        3.870889   -0.491940    1.929133
     18          1           0        4.052144    1.229128   -2.310539
     19          1           0        5.499371    0.211511   -2.428098
     20          1           0        5.122119    1.049351   -0.911956
     21          1           0        3.489644   -1.212412   -2.191063
     22          1           0        4.549432   -1.399677   -0.802667
     23          1           0       -0.810148    0.880335   -1.493883
     24          1           0       -2.006995   -0.334463    2.094242
     25          1           0       -3.649502   -2.394219    1.894124
     26          1           0       -3.907042   -3.162294   -0.612400
     27          1           0       -1.367451    1.836680    1.223812
     28          1           0       -2.086057    3.792338   -0.156439
     29          1           0       -2.137146    2.691248   -1.512172
     30          1           0       -3.730072    2.354995    1.103339
     31          1           0       -4.358182    3.057670   -0.392159
     32          1           0       -3.911043    1.354154   -0.353357
     33          1           0        3.822624    0.180236    2.792324
     34          1           0        3.820708   -1.523765    2.291678
     35          1           0        4.847116   -0.344767    1.456430
 ---------------------------------------------------------------------
 Rotational constants (GHZ):           0.6080826           0.2229813           0.2100764
 Standard basis: 6-31G(d) (6D, 7F)
 There are   299 symmetry adapted cartesian basis functions of A   symmetry.
 There are   299 symmetry adapted basis functions of A   symmetry.
   299 basis functions,   596 primitive gaussians,   299 cartesian basis functions
    71 alpha electrons       71 beta electrons
       nuclear repulsion energy      1457.5320916673 Hartrees.
 NAtoms=   35 NActive=   35 NUniq=   35 SFac= 1.00D+00 NAtFMM=   60 NAOKFM=F Big=F
 Integral buffers will be    131072 words long.
 Raffenetti 2 integral format.
 Two-electron integral symmetry is turned on.
 Nuclear repulsion after empirical dispersion term =     1457.4557368176 Hartrees.
 One-electron integrals computed using PRISM.
 NBasis=   299 RedAO= T EigKep=  1.23D-03  NBF=   299
 NBsUse=   299 1.00D-06 EigRej= -1.00D+00 NBFU=   299
 ExpMin= 1.17D-01 ExpMax= 2.19D+04 ExpMxC= 3.30D+03 IAcc=3 IRadAn=         5 AccDes= 0.00D+00
 Harris functional with IExCor=  402 and IRadAn=       5 diagonalized for initial guess.
 HarFok:  IExCor=  402 AccDes= 0.00D+00 IRadAn=         5 IDoV= 1 UseB2=F ITyADJ=14
 ICtDFT=  3500011 ScaDFX=  1.000000  1.000000  1.000000  1.000000
 FoFCou: FMM=F IPFlag=           0 FMFlag=      100000 FMFlg1=           0
         NFxFlg=           0 DoJE=T BraDBF=F KetDBF=T FulRan=T
         wScrn=  0.000000 ICntrl=       500 IOpCl=  0 I1Cent=   200000004 NGrid=           0
         NMat0=    1 NMatS0=      1 NMatT0=    0 NMatD0=    1 NMtDS0=    0 NMtDT0=    0
 Petite list used in FoFCou.
 Requested convergence on RMS density matrix=1.00D-08 within  32 cycles.
 Requested convergence on MAX density matrix=1.00D-06.
 Requested convergence on             energy=1.00D-06.
 No special actions if energy rises.
 Integral accuracy reduced to 1.0D-05 until final iterations.
 Initial convergence to 1.0D-05 achieved.  Increase integral accuracy.
 SCF Done:  E(RB3LYP) =  -1412.15153693     A.U. after   15 cycles
            NFock= 15  Conv=0.74D-08     -V/T= 2.0061
 QCSCF skips out because SCF is already converged.

 **********************************************************************

            Population analysis using the SCF density.

 **********************************************************************

 Orbital symmetries:
       Occupied  (A) (A) (A) (A) (A) (A) (A) (A) (A) (A) (A) (A)
                 (A) (A) (A) (A) (A) (A) (A) (A) (A) (A) (A) (A)
                 (A) (A) (A) (A) (A) (A) (A) (A) (A) (A) (A) (A)
                 (A) (A) (A) (A) (A) (A) (A) (A) (A) (A) (A) (A)
                 (A) (A) (A) (A) (A) (A) (A) (A) (A) (A) (A) (A)
                 (A) (A) (A) (A) (A) (A) (A) (A) (A) (A) (A)
       Virtual   (A) (A) (A) (A) (A) (A) (A) (A) (A) (A) (A) (A)
                 (A) (A) (A) (A) (A) (A) (A) (A) (A) (A) (A) (A)
                 (A) (A) (A) (A) (A) (A) (A) (A) (A) (A) (A) (A)
                 (A) (A) (A) (A) (A) (A) (A) (A) (A) (A) (A) (A)
                 (A) (A) (A) (A) (A) (A) (A) (A) (A) (A) (A) (A)
                 (A) (A) (A) (A) (A) (A) (A) (A) (A) (A) (A) (A)
                 (A) (A) (A) (A) (A) (A) (A) (A) (A) (A) (A) (A)
                 (A) (A) (A) (A) (A) (A) (A) (A) (A) (A) (A) (A)
                 (A) (A) (A) (A) (A) (A) (A) (A) (A) (A) (A) (A)
                 (A) (A) (A) (A) (A) (A) (A) (A) (A) (A) (A) (A)
                 (A) (A) (A) (A) (A) (A) (A) (A) (A) (A) (A) (A)
                 (A) (A) (A) (A) (A) (A) (A) (A) (A) (A) (A) (A)
                 (A) (A) (A) (A) (A) (A) (A) (A) (A) (A) (A) (A)
                 (A) (A) (A) (A) (A) (A) (A) (A) (A) (A) (A) (A)
                 (A) (A) (A) (A) (A) (A) (A) (A) (A) (A) (A) (A)
                 (A) (A) (A) (A) (A) (A) (A) (A) (A) (A) (A) (A)
                 (A) (A) (A) (A) (A) (A) (A) (A) (A) (A) (A) (A)
                 (A) (A) (A) (A) (A) (A) (A) (A) (A) (A) (A) (A)
                 (A) (A) (A) (A) (A) (A) (A) (A) (A) (A) (A) (A)
 The electronic state is 1-A.
 Alpha  occ. eigenvalues --  -88.90565 -88.90184 -14.32247 -14.32112 -10.24174
 Alpha  occ. eigenvalues --  -10.23993 -10.21530 -10.21255 -10.20885 -10.20863
 Alpha  occ. eigenvalues --  -10.20710 -10.19473 -10.19232 -10.19122 -10.18233
 Alpha  occ. eigenvalues --  -10.17101 -10.16914  -7.96746  -7.96466  -5.93135
 Alpha  occ. eigenvalues --   -5.92841  -5.92764  -5.92490  -5.92475  -5.92181
 Alpha  occ. eigenvalues --   -0.95119  -0.91105  -0.87625  -0.80701  -0.79319
 Alpha  occ. eigenvalues --   -0.76411  -0.73523  -0.72928  -0.72211  -0.69353
 Alpha  occ. eigenvalues --   -0.65623  -0.61167  -0.61017  -0.56140  -0.55972
 Alpha  occ. eigenvalues --   -0.53634  -0.53081  -0.51168  -0.48535  -0.45819
 Alpha  occ. eigenvalues --   -0.44858  -0.43810  -0.43446  -0.42603  -0.41677
 Alpha  occ. eigenvalues --   -0.41480  -0.40799  -0.39749  -0.39377  -0.38932
 Alpha  occ. eigenvalues --   -0.38491  -0.37720  -0.36891  -0.36263  -0.35655
 Alpha  occ. eigenvalues --   -0.35588  -0.34294  -0.33974  -0.33480  -0.33006
 Alpha  occ. eigenvalues --   -0.26812  -0.26473  -0.25026  -0.23459  -0.22226
 Alpha  occ. eigenvalues --   -0.20594
 Alpha virt. eigenvalues --   -0.02287   0.00124   0.02451   0.03169   0.05478
 Alpha virt. eigenvalues --    0.06457   0.07997   0.09916   0.10313   0.11097
 Alpha virt. eigenvalues --    0.11916   0.12276   0.13558   0.14295   0.15116
 Alpha virt. eigenvalues --    0.15739   0.16369   0.16947   0.17011   0.17338
 Alpha virt. eigenvalues --    0.17469   0.17800   0.18504   0.18937   0.19137
 Alpha virt. eigenvalues --    0.20315   0.20779   0.22188   0.23868   0.24555
 Alpha virt. eigenvalues --    0.24806   0.26010   0.27118   0.27554   0.28564
 Alpha virt. eigenvalues --    0.31079   0.32143   0.33305   0.34633   0.35292
 Alpha virt. eigenvalues --    0.36892   0.38490   0.40192   0.42435   0.43203
 Alpha virt. eigenvalues --    0.43965   0.46301   0.47870   0.49170   0.50062
 Alpha virt. eigenvalues --    0.50766   0.52293   0.53053   0.53605   0.54587
 Alpha virt. eigenvalues --    0.55316   0.56582   0.57169   0.57286   0.57721
 Alpha virt. eigenvalues --    0.59608   0.60379   0.60607   0.61711   0.62763
 Alpha virt. eigenvalues --    0.64076   0.65378   0.65471   0.66348   0.66859
 Alpha virt. eigenvalues --    0.68161   0.69718   0.70656   0.72493   0.72772
 Alpha virt. eigenvalues --    0.74059   0.76610   0.78209   0.78480   0.79948
 Alpha virt. eigenvalues --    0.80912   0.81006   0.81769   0.82171   0.83728
 Alpha virt. eigenvalues --    0.84236   0.84623   0.84955   0.85726   0.86151
 Alpha virt. eigenvalues --    0.87396   0.87574   0.88733   0.89436   0.89736
 Alpha virt. eigenvalues --    0.89926   0.90475   0.90733   0.91856   0.92340
 Alpha virt. eigenvalues --    0.93831   0.94562   0.95581   0.97167   0.98282
 Alpha virt. eigenvalues --    0.98363   0.98595   0.99183   1.00298   1.01088
 Alpha virt. eigenvalues --    1.02142   1.02727   1.03232   1.04093   1.06046
 Alpha virt. eigenvalues --    1.06861   1.07238   1.07981   1.10126   1.12224
 Alpha virt. eigenvalues --    1.16200   1.16407   1.19137   1.20097   1.25364
 Alpha virt. eigenvalues --    1.30410   1.32244   1.34001   1.36520   1.38225
 Alpha virt. eigenvalues --    1.39081   1.40826   1.43975   1.45689   1.46360
 Alpha virt. eigenvalues --    1.49507   1.50567   1.54541   1.57062   1.59108
 Alpha virt. eigenvalues --    1.59810   1.61603   1.64096   1.66535   1.69867
 Alpha virt. eigenvalues --    1.72630   1.73447   1.75410   1.76154   1.76754
 Alpha virt. eigenvalues --    1.82310   1.82558   1.83806   1.86784   1.86952
 Alpha virt. eigenvalues --    1.89394   1.90613   1.91623   1.92913   1.94403
 Alpha virt. eigenvalues --    1.95522   1.96509   1.98014   2.00321   2.02204
 Alpha virt. eigenvalues --    2.03066   2.04660   2.07295   2.11968   2.13587
 Alpha virt. eigenvalues --    2.14960   2.17295   2.18365   2.18727   2.22105
 Alpha virt. eigenvalues --    2.24155   2.25488   2.26175   2.26931   2.27212
 Alpha virt. eigenvalues --    2.28907   2.30625   2.31590   2.31722   2.32706
 Alpha virt. eigenvalues --    2.34115   2.34910   2.37705   2.41803   2.42188
 Alpha virt. eigenvalues --    2.44419   2.45503   2.48503   2.52508   2.52826
 Alpha virt. eigenvalues --    2.54212   2.56784   2.58601   2.63931   2.64739
 Alpha virt. eigenvalues --    2.66183   2.71942   2.72517   2.76430   2.81347
 Alpha virt. eigenvalues --    2.84669   2.89007   2.93762   3.03816   3.06439
 Alpha virt. eigenvalues --    3.13888   3.92494   3.95709   3.96244   4.08519
 Alpha virt. eigenvalues --    4.11352   4.11825   4.16496   4.18708   4.21670
 Alpha virt. eigenvalues --    4.27559   4.32907   4.39509   4.44309   4.46480
 Alpha virt. eigenvalues --    4.48819   4.57233   4.64057
          Condensed to atoms (all electrons):
               1          2          3          4          5          6
     1  C    5.081214   0.363420  -0.045622  -0.001270  -0.000149   0.000088
     2  C    0.363420   5.094141   0.377270  -0.082876   0.008372   0.007691
     3  C   -0.045622   0.377270   4.626364   0.589084  -0.075515  -0.069046
     4  C   -0.001270  -0.082876   0.589084   5.212142   0.302351  -0.048552
     5  S   -0.000149   0.008372  -0.075515   0.302351  15.473041   0.268530
     6  C    0.000088   0.007691  -0.069046  -0.048552   0.268530   5.063963
     7  N   -0.002158  -0.068548   0.395383  -0.058682  -0.096185   0.488428
     8  C    0.000004  -0.000248   0.005919   0.003043  -0.067392   0.329105
     9  C    0.000000   0.000011   0.000013  -0.000162   0.004025  -0.073881
    10  C    0.000000   0.000000   0.000015  -0.000027   0.004350  -0.008423
    11  C   -0.000000   0.000000  -0.000000  -0.000000  -0.000099   0.000284
    12  C    0.000000  -0.000000  -0.000000   0.000000  -0.000002  -0.000088
    13  S    0.000000  -0.000003   0.000004  -0.000009  -0.000126   0.003722
    14  N   -0.000000   0.000002  -0.000046  -0.000149   0.009399  -0.061518
    15  C    0.000000  -0.000000   0.000001  -0.000002   0.000057   0.004773
    16  C   -0.000000   0.000000   0.000000  -0.000000   0.000035  -0.000145
    17  C   -0.000356  -0.005823  -0.025183   0.331060  -0.056435   0.002383
    18  H    0.380127  -0.034192  -0.005242  -0.000121   0.000071  -0.000135
    19  H    0.363341  -0.029966   0.005431  -0.000010   0.000005  -0.000000
    20  H    0.377883  -0.036932  -0.004636   0.003176  -0.000094  -0.000022
    21  H   -0.037001   0.362336  -0.025492   0.005484  -0.000100   0.000225
    22  H   -0.041234   0.365982  -0.030810  -0.006301   0.000223  -0.000275
    23  H   -0.000001  -0.000024   0.000027  -0.000003   0.006340  -0.041057
    24  H    0.000000  -0.000000  -0.000001   0.000006   0.001753   0.000402
    25  H   -0.000000  -0.000000  -0.000000  -0.000000   0.000003   0.000002
    26  H   -0.000000  -0.000000   0.000000   0.000000  -0.000000   0.000002
    27  H    0.000000  -0.000000  -0.000004   0.000003   0.002205  -0.002062
    28  H    0.000000  -0.000000  -0.000000   0.000000  -0.000031  -0.000177
    29  H   -0.000000   0.000000   0.000000   0.000000  -0.000007   0.000090
    30  H   -0.000000  -0.000000  -0.000000   0.000000  -0.000013  -0.000002
    31  H    0.000000  -0.000000   0.000000   0.000000  -0.000002   0.000005
    32  H   -0.000000  -0.000000   0.000000   0.000000   0.000002   0.000004
    33  H    0.000028   0.000103   0.002168  -0.026273  -0.002837   0.000073
    34  H   -0.000067   0.000054  -0.002783  -0.036913  -0.000162   0.000107
    35  H    0.000847   0.002194  -0.006371  -0.029653   0.003488  -0.000023
               7          8          9         10         11         12
     1  C   -0.002158   0.000004   0.000000   0.000000  -0.000000   0.000000
     2  C   -0.068548  -0.000248   0.000011   0.000000   0.000000  -0.000000
     3  C    0.395383   0.005919   0.000013   0.000015  -0.000000  -0.000000
     4  C   -0.058682   0.003043  -0.000162  -0.000027  -0.000000   0.000000
     5  S   -0.096185  -0.067392   0.004025   0.004350  -0.000099  -0.000002
     6  C    0.488428   0.329105  -0.073881  -0.008423   0.000284  -0.000088
     7  N    6.829932  -0.046646  -0.000898  -0.000156   0.000003  -0.000000
     8  C   -0.046646   5.035858   0.308348  -0.027368   0.004614   0.002413
     9  C   -0.000898   0.308348   5.275891   0.569267  -0.035493  -0.060992
    10  C   -0.000156  -0.027368   0.569267   4.901932   0.517239  -0.049793
    11  C    0.000003   0.004614  -0.035493   0.517239   4.809818   0.587202
    12  C   -0.000000   0.002413  -0.060992  -0.049793   0.587202   5.241929
    13  S    0.001127  -0.040338   0.306994  -0.098960  -0.081642   0.315780
    14  N    0.000334   0.334489  -0.079794  -0.007325   0.000415  -0.000093
    15  C   -0.000026  -0.049389   0.003026  -0.000911  -0.000024   0.000005
    16  C   -0.000001  -0.001149   0.001321  -0.000281   0.000033  -0.000085
    17  C    0.006871  -0.000080  -0.000002   0.000001   0.000000   0.000000
    18  H    0.004026  -0.000004   0.000000   0.000000  -0.000000   0.000000
    19  H   -0.000021  -0.000000  -0.000000  -0.000000   0.000000  -0.000000
    20  H   -0.000186  -0.000000  -0.000000  -0.000000   0.000000   0.000000
    21  H   -0.000773  -0.000011  -0.000001  -0.000000   0.000000   0.000000
    22  H    0.003718   0.000002  -0.000000  -0.000000  -0.000000   0.000000
    23  H    0.004420   0.363418  -0.043634   0.004671  -0.000111   0.000068
    24  H    0.000011  -0.004285  -0.053973   0.355980  -0.040203   0.006217
    25  H    0.000000  -0.000114   0.005268  -0.039530   0.361004  -0.049182
    26  H    0.000000  -0.000054   0.002724   0.004507  -0.022569   0.356551
    27  H   -0.000038  -0.033019  -0.009232   0.006042  -0.000056   0.000007
    28  H    0.000001   0.004963  -0.000446  -0.000021   0.000001  -0.000000
    29  H   -0.000018  -0.006839  -0.000462   0.000080  -0.000001  -0.000000
    30  H    0.000000  -0.000304   0.000118   0.000620  -0.000038  -0.000001
    31  H    0.000000  -0.000049   0.000141   0.000080   0.000003  -0.000005
    32  H   -0.000000   0.001165   0.000052  -0.000078   0.000497  -0.000072
    33  H   -0.000127   0.000001   0.000000   0.000000  -0.000000  -0.000000
    34  H   -0.000078   0.000001  -0.000000  -0.000000   0.000000   0.000000
    35  H    0.000049   0.000002   0.000000  -0.000000  -0.000000   0.000000
              13         14         15         16         17         18
     1  C    0.000000  -0.000000   0.000000  -0.000000  -0.000356   0.380127
     2  C   -0.000003   0.000002  -0.000000   0.000000  -0.005823  -0.034192
     3  C    0.000004  -0.000046   0.000001   0.000000  -0.025183  -0.005242
     4  C   -0.000009  -0.000149  -0.000002  -0.000000   0.331060  -0.000121
     5  S   -0.000126   0.009399   0.000057   0.000035  -0.056435   0.000071
     6  C    0.003722  -0.061518   0.004773  -0.000145   0.002383  -0.000135
     7  N    0.001127   0.000334  -0.000026  -0.000001   0.006871   0.004026
     8  C   -0.040338   0.334489  -0.049389  -0.001149  -0.000080  -0.000004
     9  C    0.306994  -0.079794   0.003026   0.001321  -0.000002   0.000000
    10  C   -0.098960  -0.007325  -0.000911  -0.000281   0.000001   0.000000
    11  C   -0.081642   0.000415  -0.000024   0.000033   0.000000  -0.000000
    12  C    0.315780  -0.000093   0.000005  -0.000085   0.000000   0.000000
    13  S   15.347215   0.004161   0.000297  -0.000706  -0.000000   0.000000
    14  N    0.004161   6.884556   0.335276  -0.065936  -0.000001  -0.000000
    15  C    0.000297   0.335276   4.833691   0.366377   0.000000  -0.000000
    16  C   -0.000706  -0.065936   0.366377   5.158112  -0.000000   0.000000
    17  C   -0.000000  -0.000001   0.000000  -0.000000   5.141216  -0.000003
    18  H    0.000000  -0.000000  -0.000000   0.000000  -0.000003   0.551893
    19  H   -0.000000   0.000000  -0.000000   0.000000  -0.000012  -0.029236
    20  H    0.000000   0.000000  -0.000000   0.000000  -0.000087  -0.030669
    21  H    0.000002   0.000000  -0.000000   0.000000  -0.000043  -0.003979
    22  H   -0.000000  -0.000000   0.000000  -0.000000   0.001806   0.005410
    23  H   -0.000934  -0.038191  -0.008045  -0.000413   0.000001   0.000005
    24  H    0.007999   0.001297  -0.000053   0.000004   0.000000   0.000000
    25  H    0.007206   0.000003  -0.000000   0.000001   0.000000  -0.000000
    26  H   -0.037945   0.000001  -0.000000  -0.000001  -0.000000   0.000000
    27  H    0.000031   0.301521  -0.040302  -0.004888   0.000001  -0.000000
    28  H    0.000026  -0.048995   0.389160  -0.059174   0.000000  -0.000000
    29  H    0.000238  -0.034692   0.381500  -0.041481   0.000000  -0.000000
    30  H   -0.000010  -0.004748  -0.035032   0.377481  -0.000000   0.000000
    31  H   -0.000040   0.005183  -0.025435   0.346773   0.000000   0.000000
    32  H    0.002735  -0.000839  -0.031242   0.377437   0.000000  -0.000000
    33  H   -0.000000  -0.000000   0.000000  -0.000000   0.369389   0.000001
    34  H    0.000000   0.000000  -0.000000   0.000000   0.371682  -0.000000
    35  H   -0.000000  -0.000000   0.000000  -0.000000   0.371715  -0.000030
              19         20         21         22         23         24
     1  C    0.363341   0.377883  -0.037001  -0.041234  -0.000001   0.000000
     2  C   -0.029966  -0.036932   0.362336   0.365982  -0.000024  -0.000000
     3  C    0.005431  -0.004636  -0.025492  -0.030810   0.000027  -0.000001
     4  C   -0.000010   0.003176   0.005484  -0.006301  -0.000003   0.000006
     5  S    0.000005  -0.000094  -0.000100   0.000223   0.006340   0.001753
     6  C   -0.000000  -0.000022   0.000225  -0.000275  -0.041057   0.000402
     7  N   -0.000021  -0.000186  -0.000773   0.003718   0.004420   0.000011
     8  C   -0.000000  -0.000000  -0.000011   0.000002   0.363418  -0.004285
     9  C   -0.000000  -0.000000  -0.000001  -0.000000  -0.043634  -0.053973
    10  C   -0.000000  -0.000000  -0.000000  -0.000000   0.004671   0.355980
    11  C    0.000000   0.000000   0.000000  -0.000000  -0.000111  -0.040203
    12  C   -0.000000   0.000000   0.000000   0.000000   0.000068   0.006217
    13  S   -0.000000   0.000000   0.000002  -0.000000  -0.000934   0.007999
    14  N    0.000000   0.000000   0.000000  -0.000000  -0.038191   0.001297
    15  C   -0.000000  -0.000000  -0.000000   0.000000  -0.008045  -0.000053
    16  C    0.000000   0.000000   0.000000  -0.000000  -0.000413   0.000004
    17  C   -0.000012  -0.000087  -0.000043   0.001806   0.000001   0.000000
    18  H   -0.029236  -0.030669  -0.003979   0.005410   0.000005   0.000000
    19  H    0.585792  -0.030501  -0.002910  -0.002773  -0.000000  -0.000000
    20  H   -0.030501   0.577085   0.005303  -0.004878   0.000000   0.000000
    21  H   -0.002910   0.005303   0.570074  -0.034454   0.000009   0.000000
    22  H   -0.002773  -0.004878  -0.034454   0.604893   0.000000   0.000000
    23  H   -0.000000   0.000000   0.000009   0.000000   0.563375  -0.000056
    24  H   -0.000000   0.000000   0.000000   0.000000  -0.000056   0.590701
    25  H    0.000000   0.000000   0.000000   0.000000   0.000002  -0.002221
    26  H   -0.000000   0.000000   0.000000   0.000000  -0.000002  -0.000113
    27  H   -0.000000   0.000000  -0.000000   0.000000   0.005601   0.003125
    28  H    0.000000   0.000000   0.000000  -0.000000   0.000335   0.000006
    29  H    0.000000  -0.000000  -0.000000   0.000000   0.007372   0.000000
    30  H    0.000000  -0.000000  -0.000000   0.000000   0.000029   0.000227
    31  H   -0.000000  -0.000000  -0.000000   0.000000  -0.000008   0.000003
    32  H    0.000000   0.000000   0.000000   0.000000   0.000124  -0.000058
    33  H   -0.000002  -0.000044  -0.000003  -0.000045   0.000000   0.000000
    34  H    0.000003   0.000020   0.000038   0.000445   0.000000   0.000000
    35  H   -0.000055   0.001431  -0.000075   0.000905  -0.000000  -0.000000
              25         26         27         28         29         30
     1  C   -0.000000  -0.000000   0.000000   0.000000  -0.000000  -0.000000
     2  C   -0.000000  -0.000000  -0.000000  -0.000000   0.000000  -0.000000
     3  C   -0.000000   0.000000  -0.000004  -0.000000   0.000000  -0.000000
     4  C   -0.000000   0.000000   0.000003   0.000000   0.000000   0.000000
     5  S    0.000003  -0.000000   0.002205  -0.000031  -0.000007  -0.000013
     6  C    0.000002   0.000002  -0.002062  -0.000177   0.000090  -0.000002
     7  N    0.000000   0.000000  -0.000038   0.000001  -0.000018   0.000000
     8  C   -0.000114  -0.000054  -0.033019   0.004963  -0.006839  -0.000304
     9  C    0.005268   0.002724  -0.009232  -0.000446  -0.000462   0.000118
    10  C   -0.039530   0.004507   0.006042  -0.000021   0.000080   0.000620
    11  C    0.361004  -0.022569  -0.000056   0.000001  -0.000001  -0.000038
    12  C   -0.049182   0.356551   0.000007  -0.000000  -0.000000  -0.000001
    13  S    0.007206  -0.037945   0.000031   0.000026   0.000238  -0.000010
    14  N    0.000003   0.000001   0.301521  -0.048995  -0.034692  -0.004748
    15  C   -0.000000  -0.000000  -0.040302   0.389160   0.381500  -0.035032
    16  C    0.000001  -0.000001  -0.004888  -0.059174  -0.041481   0.377481
    17  C    0.000000  -0.000000   0.000001   0.000000   0.000000  -0.000000
    18  H   -0.000000   0.000000  -0.000000  -0.000000  -0.000000   0.000000
    19  H    0.000000  -0.000000  -0.000000   0.000000   0.000000   0.000000
    20  H    0.000000   0.000000   0.000000   0.000000  -0.000000  -0.000000
    21  H    0.000000   0.000000  -0.000000   0.000000  -0.000000  -0.000000
    22  H    0.000000   0.000000   0.000000  -0.000000   0.000000   0.000000
    23  H    0.000002  -0.000002   0.005601   0.000335   0.007372   0.000029
    24  H   -0.002221  -0.000113   0.003125   0.000006   0.000000   0.000227
    25  H    0.580353  -0.003411   0.000005   0.000000  -0.000000  -0.000002
    26  H   -0.003411   0.530473  -0.000000   0.000000  -0.000000   0.000000
    27  H    0.000005  -0.000000   0.458768   0.000079   0.005467   0.006013
    28  H    0.000000   0.000000   0.000079   0.607067  -0.036016  -0.004206
    29  H   -0.000000  -0.000000   0.005467  -0.036016   0.577783   0.004904
    30  H   -0.000002   0.000000   0.006013  -0.004206   0.004904   0.579089
    31  H    0.000000   0.000000   0.000119  -0.001339  -0.000546  -0.029530
    32  H    0.000002   0.000006  -0.000203   0.005285  -0.005101  -0.030721
    33  H   -0.000000  -0.000000   0.000000   0.000000  -0.000000  -0.000000
    34  H    0.000000   0.000000  -0.000000   0.000000  -0.000000   0.000000
    35  H   -0.000000   0.000000  -0.000000  -0.000000   0.000000   0.000000
              31         32         33         34         35
     1  C    0.000000  -0.000000   0.000028  -0.000067   0.000847
     2  C   -0.000000  -0.000000   0.000103   0.000054   0.002194
     3  C    0.000000   0.000000   0.002168  -0.002783  -0.006371
     4  C    0.000000   0.000000  -0.026273  -0.036913  -0.029653
     5  S   -0.000002   0.000002  -0.002837  -0.000162   0.003488
     6  C    0.000005   0.000004   0.000073   0.000107  -0.000023
     7  N    0.000000  -0.000000  -0.000127  -0.000078   0.000049
     8  C   -0.000049   0.001165   0.000001   0.000001   0.000002
     9  C    0.000141   0.000052   0.000000  -0.000000   0.000000
    10  C    0.000080  -0.000078   0.000000  -0.000000  -0.000000
    11  C    0.000003   0.000497  -0.000000   0.000000  -0.000000
    12  C   -0.000005  -0.000072  -0.000000   0.000000   0.000000
    13  S   -0.000040   0.002735  -0.000000   0.000000  -0.000000
    14  N    0.005183  -0.000839  -0.000000   0.000000  -0.000000
    15  C   -0.025435  -0.031242   0.000000  -0.000000   0.000000
    16  C    0.346773   0.377437  -0.000000   0.000000  -0.000000
    17  C    0.000000   0.000000   0.369389   0.371682   0.371715
    18  H    0.000000  -0.000000   0.000001  -0.000000  -0.000030
    19  H   -0.000000   0.000000  -0.000002   0.000003  -0.000055
    20  H   -0.000000   0.000000  -0.000044   0.000020   0.001431
    21  H   -0.000000   0.000000  -0.000003   0.000038  -0.000075
    22  H    0.000000   0.000000  -0.000045   0.000445   0.000905
    23  H   -0.000008   0.000124   0.000000   0.000000  -0.000000
    24  H    0.000003  -0.000058   0.000000   0.000000  -0.000000
    25  H    0.000000   0.000002  -0.000000   0.000000  -0.000000
    26  H    0.000000   0.000006  -0.000000   0.000000   0.000000
    27  H    0.000119  -0.000203   0.000000  -0.000000  -0.000000
    28  H   -0.001339   0.005285   0.000000   0.000000  -0.000000
    29  H   -0.000546  -0.005101  -0.000000  -0.000000   0.000000
    30  H   -0.029530  -0.030721  -0.000000   0.000000   0.000000
    31  H    0.595867  -0.028191   0.000000  -0.000000   0.000000
    32  H   -0.028191   0.539653  -0.000000   0.000000  -0.000000
    33  H    0.000000  -0.000000   0.549085  -0.031588  -0.027154
    34  H   -0.000000   0.000000  -0.031588   0.555651  -0.029578
    35  H    0.000000  -0.000000  -0.027154  -0.029578   0.541770
 Mulliken charges:
               1
     1  C   -0.439095
     2  C   -0.322966
     3  C    0.289069
     4  C   -0.155347
     5  S    0.214897
     6  C    0.135529
     7  N   -0.459762
     8  C   -0.116055
     9  C   -0.118229
    10  C   -0.131912
    11  C   -0.100878
    12  C   -0.349859
    13  S    0.263176
    14  N   -0.534308
    15  C   -0.123699
    16  C   -0.453313
    17  C   -0.508103
    18  H    0.162077
    19  H    0.140915
    20  H    0.143151
    21  H    0.161371
    22  H    0.137385
    23  H    0.176682
    24  H    0.133233
    25  H    0.140612
    26  H    0.169831
    27  H    0.300817
    28  H    0.143482
    29  H    0.147727
    30  H    0.136127
    31  H    0.136971
    32  H    0.169544
    33  H    0.167225
    34  H    0.173167
    35  H    0.170538
 Sum of Mulliken charges =   0.00000
 Mulliken charges with hydrogens summed into heavy atoms:
               1
     1  C    0.007049
     2  C   -0.024210
     3  C    0.289069
     4  C   -0.155347
     5  S    0.214897
     6  C    0.135529
     7  N   -0.459762
     8  C    0.060627
     9  C   -0.118229
    10  C    0.001321
    11  C    0.039734
    12  C   -0.180028
    13  S    0.263176
    14  N   -0.233491
    15  C    0.167509
    16  C   -0.010672
    17  C    0.002828
 Electronic spatial extent (au):  <R**2>=           5810.0314
 Charge=             -0.0000 electrons
 Dipole moment (field-independent basis, Debye):
    X=             -0.3098    Y=             -0.4878    Z=              1.6491  Tot=              1.7475
 Quadrupole moment (field-independent basis, Debye-Ang):
   XX=           -104.3503   YY=           -115.1922   ZZ=           -112.3265
   XY=             -1.0814   XZ=              1.5389   YZ=             -0.4907
 Traceless Quadrupole moment (field-independent basis, Debye-Ang):
   XX=              6.2727   YY=             -4.5692   ZZ=             -1.7035
   XY=             -1.0814   XZ=              1.5389   YZ=             -0.4907
 Octapole moment (field-independent basis, Debye-Ang**2):
  XXX=             35.6252  YYY=             -6.7502  ZZZ=             10.8209  XYY=            -23.9627
  XXY=            -21.0183  XXZ=             10.7506  XZZ=             -2.6374  YZZ=              1.8208
  YYZ=             -3.5451  XYZ=              0.7138
 Hexadecapole moment (field-independent basis, Debye-Ang**3):
 XXXX=          -5316.9166 YYYY=          -1434.2294 ZZZZ=          -1051.6272 XXXY=             36.5403
 XXXZ=             28.3621 YYYX=             23.5043 YYYZ=              7.0104 ZZZX=              1.2644
 ZZZY=              2.0458 XXYY=          -1060.4521 XXZZ=          -1031.9043 YYZZ=           -404.3423
 XXYZ=              3.7724 YYXZ=             12.7843 ZZXY=             -0.5888
 N-N= 1.457455736818D+03 E-N=-6.233905004690D+03  KE= 1.403639092556D+03
 Calling FoFJK, ICntrl=      2127 FMM=F ISym2X=0 I1Cent= 0 IOpClX= 0 NMat=1 NMatS=1 NMatT=0.
 ***** Axes restored to original set *****
 -------------------------------------------------------------------
 Center     Atomic                   Forces (Hartrees/Bohr)
 Number     Number              X              Y              Z
 -------------------------------------------------------------------
      1        6           0.002419064   -0.002901033   -0.007868400
      2        6          -0.001506761   -0.004365262    0.004265870
      3        6           0.001616557    0.008385997    0.009572768
      4        6          -0.009854410   -0.010215280   -0.013828399
      5       16           0.007966937    0.010964248    0.008035143
      6        6          -0.015657152    0.003039253   -0.015224851
      7        7           0.011115771    0.014065766    0.010631686
      8        6           0.006649668   -0.000703719    0.002385859
      9        6           0.008169334   -0.002023767    0.005945024
     10        6          -0.003988331   -0.002757397   -0.009933432
     11        6          -0.004734002   -0.001426674   -0.004966089
     12        6          -0.000610826    0.004695807    0.015170239
     13       16          -0.006399340   -0.002124157   -0.008602911
     14        7          -0.012278194   -0.019962286   -0.010808910
     15        6           0.013658184    0.007984007    0.004982545
     16        6          -0.008100959    0.008105531   -0.001817845
     17        6           0.001222205   -0.005850114    0.000221371
     18        1           0.000042898    0.000310934    0.000726474
     19        1           0.000347526   -0.000934945   -0.001693828
     20        1           0.000575341    0.000039188   -0.000154645
     21        1           0.001032837    0.001911332    0.001589951
     22        1           0.000562667   -0.000427700    0.000512336
     23        1           0.003110260   -0.000553348    0.003082381
     24        1           0.001196598   -0.000081449   -0.000085720
     25        1           0.000678243    0.000226114    0.000416938
     26        1          -0.000024670    0.000415101    0.000478030
     27        1           0.000306019    0.003164377   -0.000424404
     28        1           0.001255147   -0.000339763   -0.002641735
     29        1          -0.000361082   -0.006214930    0.002842438
     30        1           0.000370508   -0.000689938    0.000708450
     31        1           0.000388364    0.002308177    0.000057179
     32        1           0.000055344   -0.000915249    0.002705435
     33        1          -0.000337987   -0.000595353    0.000941106
     34        1           0.002086500   -0.002512701    0.002417025
     35        1          -0.000972257   -0.000020768    0.000362920
 -------------------------------------------------------------------
 Cartesian Forces:  Max     0.019962286 RMS     0.006006102

 GradGradGradGradGradGradGradGradGradGradGradGradGradGradGradGradGradGrad
 Berny optimization.
 FormGI is forming the generalized inverse of G from B-inverse, IUseBI=4.
 Internal  Forces:  Max     0.018071287 RMS     0.003627464
 Search for a local minimum.
 Step number   1 out of a maximum of  191
 All quantities printed in internal units (Hartrees-Bohrs-Radians)
 Mixed Optimization -- RFO/linear search
 Second derivative matrix not updated -- first step.
 ITU=  0
     Eigenvalues ---    0.00364   0.00482   0.00494   0.00516   0.00649
     Eigenvalues ---    0.00833   0.00927   0.00933   0.01039   0.01247
     Eigenvalues ---    0.01447   0.01477   0.01782   0.01943   0.01961
     Eigenvalues ---    0.02075   0.02120   0.02208   0.02219   0.02347
     Eigenvalues ---    0.03964   0.04250   0.04579   0.05450   0.05537
     Eigenvalues ---    0.05568   0.05588   0.05670   0.05729   0.06169
     Eigenvalues ---    0.06638   0.07282   0.07390   0.09375   0.09752
     Eigenvalues ---    0.11719   0.12835   0.13123   0.16000   0.16000
     Eigenvalues ---    0.16000   0.16000   0.16000   0.16000   0.16000
     Eigenvalues ---    0.16000   0.16000   0.16000   0.16000   0.16000
     Eigenvalues ---    0.18756   0.19093   0.21925   0.21949   0.22134
     Eigenvalues ---    0.23148   0.23811   0.24998   0.24999   0.25000
     Eigenvalues ---    0.25000   0.25000   0.25000   0.29386   0.30227
     Eigenvalues ---    0.30316   0.30472   0.32235   0.32541   0.32913
     Eigenvalues ---    0.33627   0.33719   0.33735   0.33879   0.34059
     Eigenvalues ---    0.34075   0.34117   0.34122   0.34201   0.34213
     Eigenvalues ---    0.34218   0.34230   0.34241   0.34262   0.34288
     Eigenvalues ---    0.34296   0.34535   0.34706   0.35606   0.35622
     Eigenvalues ---    0.35828   0.37241   0.40602   0.45058   0.45441
     Eigenvalues ---    0.45842   0.47176   0.48821   0.59390
 RFO step:  Lambda=-9.49770720D-03 EMin= 3.63714210D-03
 Linear search not attempted -- first point.
 Iteration  1 RMS(Cart)=  0.04600610 RMS(Int)=  0.00084546
 Iteration  2 RMS(Cart)=  0.00173466 RMS(Int)=  0.00024896
 Iteration  3 RMS(Cart)=  0.00000154 RMS(Int)=  0.00024896
 Iteration  4 RMS(Cart)=  0.00000000 RMS(Int)=  0.00024896
 Variable       Old X    -DE/DX   Delta X   Delta X   Delta X     New X
                                 (Linear)    (Quad)   (Total)
    R1        2.87338   0.01003   0.00000   0.03208   0.03208   2.90545
    R2        2.06993  -0.00022   0.00000  -0.00062  -0.00062   2.06931
    R3        2.06833   0.00134   0.00000   0.00381   0.00381   2.07215
    R4        2.06973   0.00054   0.00000   0.00153   0.00153   2.07126
    R5        2.82504   0.00501   0.00000   0.01479   0.01479   2.83983
    R6        2.07231  -0.00099   0.00000  -0.00282  -0.00282   2.06949
    R7        2.07125   0.00070   0.00000   0.00199   0.00199   2.07323
    R8        2.61601  -0.01031   0.00000  -0.02049  -0.02044   2.59557
    R9        2.61817   0.00098   0.00000   0.00077   0.00083   2.61901
   R10        3.23785   0.01506   0.00000   0.04494   0.04491   3.28276
   R11        2.81080   0.00924   0.00000   0.02664   0.02664   2.83744
   R12        3.26063   0.00989   0.00000   0.02931   0.02925   3.28988
   R13        2.49553  -0.01807   0.00000  -0.02992  -0.02992   2.46562
   R14        2.89205  -0.01033   0.00000  -0.03404  -0.03404   2.85801
   R15        2.87031   0.00060   0.00000   0.00189   0.00189   2.87221
   R16        2.79455  -0.00658   0.00000  -0.01845  -0.01845   2.77610
   R17        2.07807  -0.00436   0.00000  -0.01259  -0.01259   2.06548
   R18        2.61895  -0.01041   0.00000  -0.02235  -0.02236   2.59659
   R19        3.25258   0.00910   0.00000   0.02680   0.02676   3.27934
   R20        2.69234   0.00222   0.00000   0.00400   0.00404   2.69638
   R21        2.04702   0.00114   0.00000   0.00312   0.00312   2.05014
   R22        2.59930  -0.00428   0.00000  -0.00811  -0.00807   2.59123
   R23        2.04677   0.00056   0.00000   0.00153   0.00153   2.04830
   R24        3.22736   0.01078   0.00000   0.03175   0.03174   3.25910
   R25        2.04352   0.00031   0.00000   0.00085   0.00085   2.04436
   R26        2.75485   0.00418   0.00000   0.01095   0.01095   2.76580
   R27        1.91909   0.00027   0.00000   0.00058   0.00058   1.91966
   R28        2.87513   0.00929   0.00000   0.02980   0.02980   2.90494
   R29        2.07203   0.00228   0.00000   0.00652   0.00652   2.07855
   R30        2.07133  -0.00101   0.00000  -0.00289  -0.00289   2.06843
   R31        2.06926   0.00069   0.00000   0.00196   0.00196   2.07122
   R32        2.06964   0.00193   0.00000   0.00550   0.00550   2.07513
   R33        2.06436   0.00124   0.00000   0.00351   0.00351   2.06787
   R34        2.06944  -0.00035   0.00000  -0.00099  -0.00099   2.06846
   R35        2.06890   0.00211   0.00000   0.00598   0.00598   2.07488
   R36        2.06847  -0.00024   0.00000  -0.00067  -0.00067   2.06780
    A1        1.93974  -0.00141   0.00000  -0.00992  -0.00992   1.92982
    A2        1.92527   0.00235   0.00000   0.01619   0.01618   1.94145
    A3        1.94113   0.00005   0.00000  -0.00048  -0.00052   1.94061
    A4        1.88719  -0.00031   0.00000  -0.00044  -0.00040   1.88679
    A5        1.88161   0.00014   0.00000  -0.00353  -0.00358   1.87803
    A6        1.88695  -0.00086   0.00000  -0.00207  -0.00211   1.88484
    A7        1.95675   0.00252   0.00000   0.01055   0.01054   1.96729
    A8        1.90609   0.00064   0.00000   0.00539   0.00543   1.91152
    A9        1.91293  -0.00060   0.00000   0.00329   0.00325   1.91619
   A10        1.90542  -0.00273   0.00000  -0.02390  -0.02390   1.88152
   A11        1.92154  -0.00053   0.00000   0.00018   0.00011   1.92165
   A12        1.85843   0.00061   0.00000   0.00405   0.00398   1.86241
   A13        2.22406  -0.00597   0.00000  -0.02246  -0.02265   2.20140
   A14        2.05531   0.00322   0.00000   0.01298   0.01277   2.06808
   A15        2.00381   0.00275   0.00000   0.00937   0.00934   2.01315
   A16        1.91654  -0.00421   0.00000  -0.01229  -0.01225   1.90429
   A17        2.26658  -0.00274   0.00000  -0.01256  -0.01258   2.25400
   A18        2.10003   0.00696   0.00000   0.02483   0.02480   2.12483
   A19        1.57318  -0.00291   0.00000  -0.00461  -0.00474   1.56844
   A20        1.99808  -0.00167   0.00000  -0.00866  -0.00873   1.98936
   A21        2.12284   0.00483   0.00000   0.01973   0.01970   2.14254
   A22        2.16227  -0.00316   0.00000  -0.01107  -0.01108   2.15118
   A23        1.93313   0.00605   0.00000   0.01629   0.01640   1.94953
   A24        1.93867  -0.00191   0.00000  -0.00623  -0.00621   1.93247
   A25        1.94387  -0.00340   0.00000  -0.01447  -0.01457   1.92930
   A26        1.82724   0.00120   0.00000  -0.00572  -0.00588   1.82136
   A27        1.96870   0.00632   0.00000   0.03805   0.03808   2.00678
   A28        1.90334  -0.00128   0.00000  -0.00572  -0.00576   1.89758
   A29        1.87497  -0.00129   0.00000  -0.00938  -0.00953   1.86545
   A30        2.26410  -0.00350   0.00000  -0.01250  -0.01248   2.25162
   A31        2.08479   0.00505   0.00000   0.02046   0.02048   2.10528
   A32        1.93422  -0.00154   0.00000  -0.00795  -0.00800   1.92623
   A33        1.96705   0.00323   0.00000   0.00929   0.00931   1.97636
   A34        2.15654  -0.00199   0.00000  -0.00689  -0.00690   2.14963
   A35        2.15959  -0.00123   0.00000  -0.00239  -0.00240   2.15719
   A36        1.95444   0.00362   0.00000   0.01391   0.01397   1.96841
   A37        2.17546  -0.00241   0.00000  -0.01049  -0.01053   2.16493
   A38        2.15328  -0.00121   0.00000  -0.00339  -0.00343   2.14985
   A39        1.95674  -0.00476   0.00000  -0.01798  -0.01795   1.93879
   A40        2.23009   0.00188   0.00000   0.00604   0.00602   2.23611
   A41        2.09635   0.00288   0.00000   0.01195   0.01193   2.10828
   A42        1.61229  -0.00054   0.00000   0.00269   0.00261   1.61490
   A43        2.00664   0.00461   0.00000   0.01342   0.01334   2.01998
   A44        1.91889  -0.00018   0.00000  -0.00596  -0.00612   1.91277
   A45        1.95132  -0.00423   0.00000  -0.03868  -0.03872   1.91260
   A46        1.99532   0.00978   0.00000   0.04202   0.04087   2.03619
   A47        1.86359  -0.00130   0.00000   0.02028   0.01818   1.88176
   A48        1.95001  -0.00908   0.00000  -0.08349  -0.08319   1.86683
   A49        1.87417  -0.00036   0.00000   0.03284   0.03120   1.90537
   A50        1.92723  -0.00075   0.00000  -0.01272  -0.01242   1.91480
   A51        1.84434   0.00146   0.00000   0.00514   0.00542   1.84976
   A52        1.94347  -0.00156   0.00000  -0.01474  -0.01476   1.92871
   A53        1.91629   0.00210   0.00000   0.01788   0.01781   1.93410
   A54        1.95458   0.00064   0.00000   0.00374   0.00357   1.95815
   A55        1.87843  -0.00036   0.00000  -0.00224  -0.00216   1.87628
   A56        1.89583  -0.00081   0.00000  -0.01460  -0.01470   1.88113
   A57        1.87230  -0.00002   0.00000   0.01043   0.01021   1.88251
   A58        1.94783   0.00040   0.00000   0.00208   0.00204   1.94987
   A59        1.92356   0.00476   0.00000   0.02864   0.02862   1.95218
   A60        1.93942  -0.00138   0.00000  -0.00844  -0.00843   1.93100
   A61        1.89172  -0.00265   0.00000  -0.01508  -0.01515   1.87657
   A62        1.87253   0.00030   0.00000   0.00072   0.00072   1.87325
   A63        1.88663  -0.00167   0.00000  -0.00931  -0.00928   1.87734
    D1       -1.03891   0.00104   0.00000   0.01857   0.01856  -1.02035
    D2        1.07520  -0.00032   0.00000  -0.00099  -0.00102   1.07418
    D3        3.10493   0.00043   0.00000   0.00880   0.00877   3.11370
    D4       -3.13193   0.00081   0.00000   0.01490   0.01493  -3.11700
    D5       -1.01782  -0.00056   0.00000  -0.00467  -0.00465  -1.02247
    D6        1.01191   0.00019   0.00000   0.00513   0.00514   1.01705
    D7        1.05763   0.00029   0.00000   0.00710   0.00711   1.06474
    D8       -3.11145  -0.00107   0.00000  -0.01246  -0.01247  -3.12391
    D9       -1.08172  -0.00032   0.00000  -0.00267  -0.00268  -1.08440
   D10       -1.59345   0.00003   0.00000  -0.00993  -0.00999  -1.60344
   D11        1.54351  -0.00081   0.00000  -0.04278  -0.04277   1.50074
   D12        2.57524  -0.00054   0.00000  -0.00723  -0.00722   2.56802
   D13       -0.57099  -0.00139   0.00000  -0.04008  -0.04001  -0.61099
   D14        0.54101   0.00062   0.00000   0.00169   0.00164   0.54265
   D15       -2.60522  -0.00023   0.00000  -0.03115  -0.03114  -2.63636
   D16       -3.13865  -0.00104   0.00000  -0.03705  -0.03690   3.10764
   D17       -0.00664  -0.00109   0.00000  -0.03990  -0.03975  -0.04639
   D18        0.00746  -0.00022   0.00000  -0.00504  -0.00503   0.00243
   D19        3.13947  -0.00026   0.00000  -0.00789  -0.00788   3.13159
   D20       -3.14048   0.00070   0.00000   0.02614   0.02657  -3.11390
   D21       -0.00294  -0.00007   0.00000  -0.00269  -0.00281  -0.00575
   D22       -0.00741   0.00033   0.00000   0.00834   0.00833   0.00092
   D23       -3.14048   0.00042   0.00000   0.01109   0.01115  -3.12933
   D24        2.53680  -0.00036   0.00000  -0.01460  -0.01459   2.52221
   D25       -1.64351  -0.00022   0.00000  -0.01288  -0.01281  -1.65632
   D26        0.44747  -0.00008   0.00000  -0.01119  -0.01117   0.43629
   D27       -0.61524  -0.00047   0.00000  -0.01790  -0.01796  -0.63320
   D28        1.48763  -0.00033   0.00000  -0.01619  -0.01618   1.47145
   D29       -2.70457  -0.00019   0.00000  -0.01450  -0.01455  -2.71912
   D30        0.00623  -0.00038   0.00000  -0.01049  -0.01053  -0.00430
   D31       -3.13557  -0.00069   0.00000  -0.02549  -0.02559   3.12203
   D32       -0.00305   0.00029   0.00000   0.00927   0.00943   0.00637
   D33        3.13875   0.00061   0.00000   0.02466   0.02456  -3.11987
[...]
   331    C   15  px     Ryd( 3p)     0.00202       0.82206
   332    C   15  px     Ryd( 4p)     0.00061       0.84220
   333    C   15  px     Ryd( 5p)     0.00006       2.98796
   334    C   15  py     Val( 2p)     0.55296       0.01295
   335    C   15  py     Ryd( 3p)     0.00157       0.97543
   336    C   15  py     Ryd( 4p)     0.00026       1.72758
   337    C   15  py     Ryd( 5p)     0.00004       2.88654
   338    C   15  pz     Val( 2p)     0.55790       0.01243
   339    C   15  pz     Ryd( 3p)     0.00113       0.80912
   340    C   15  pz     Ryd( 4p)     0.00028       1.22428
   341    C   15  pz     Ryd( 5p)     0.00003       2.87985
   342    C   15  dxy    Ryd( 3d)     0.00042       2.20342
   343    C   15  dxz    Ryd( 3d)     0.00041       2.12447
   344    C   15  dyz    Ryd( 3d)     0.00027       2.00053
   345    C   15  dx2y2  Ryd( 3d)     0.00086       2.30507
   346    C   15  dz2    Ryd( 3d)     0.00065       2.35147
 
   347    C   16  S      Cor( 1S)     0.99966      -9.92240
   348    C   16  S      Val( 2S)     0.54699      -0.16006
   349    C   16  S      Ryd( 4S)     0.00047       1.57972
   350    C   16  S      Ryd( 3S)     0.00044       1.06242
   351    C   16  S      Ryd( 5S)     0.00001      22.38810
   352    C   16  px     Val( 2p)     0.54961       0.01329
   353    C   16  px     Ryd( 3p)     0.00052       0.71116
   354    C   16  px     Ryd( 4p)     0.00006       0.85365
   355    C   16  px     Ryd( 5p)     0.00004       2.91002
   356    C   16  py     Val( 2p)     0.59521       0.01377
   357    C   16  py     Ryd( 3p)     0.00055       0.63376
   358    C   16  py     Ryd( 4p)     0.00006       0.90227
   359    C   16  py     Ryd( 5p)     0.00002       2.86605
   360    C   16  pz     Val( 2p)     0.60053       0.01118
   361    C   16  pz     Ryd( 3p)     0.00050       0.60423
   362    C   16  pz     Ryd( 4p)     0.00007       0.94834
   363    C   16  pz     Ryd( 5p)     0.00001       2.80604
   364    C   16  dxy    Ryd( 3d)     0.00030       2.25124
   365    C   16  dxz    Ryd( 3d)     0.00023       2.09229
   366    C   16  dyz    Ryd( 3d)     0.00023       2.07542
   367    C   16  dx2y2  Ryd( 3d)     0.00036       2.23470
   368    C   16  dz2    Ryd( 3d)     0.00048       2.31895
 
   369    C   17  S      Cor( 1S)     0.99962      -9.93294
   370    C   17  S      Val( 2S)     0.53408      -0.15051
   371    C   17  S      Ryd( 3S)     0.00044       2.00020
   372    C   17  S      Ryd( 4S)     0.00055       2.89627
   373    C   17  S      Ryd( 5S)     0.00002      17.36761
   374    C   17  px     Val( 2p)     0.55245       0.00659
   375    C   17  px     Ryd( 3p)     0.00099       1.50121
   376    C   17  px     Ryd( 5p)     0.00029       3.10655
   377    C   17  px     Ryd( 4p)     0.00002       3.02361
   378    C   17  py     Val( 2p)     0.60308      -0.00092
   379    C   17  py     Ryd( 3p)     0.00155       0.69446
   380    C   17  py     Ryd( 4p)     0.00023       1.33785
   381    C   17  py     Ryd( 5p)     0.00002       2.92256
   382    C   17  pz     Val( 2p)     0.60305      -0.00052
   383    C   17  pz     Ryd( 3p)     0.00085       0.61107
   384    C   17  pz     Ryd( 4p)     0.00007       1.20061
   385    C   17  pz     Ryd( 5p)     0.00001       2.92124
   386    C   17  dxy    Ryd( 3d)     0.00041       2.40849
   387    C   17  dxz    Ryd( 3d)     0.00020       1.97724
   388    C   17  dyz    Ryd( 3d)     0.00045       2.27072
   389    C   17  dx2y2  Ryd( 3d)     0.00022       2.21084
   390    C   17  dz2    Ryd( 3d)     0.00034       2.20952
 
   391    H   18  S      Val( 1S)     0.39465       0.14801
   392    H   18  S      Ryd( 2S)     0.00063       0.57296
   393    H   18  S      Ryd( 3S)     0.00045       1.13391
   394    H   18  S      Ryd( 4S)     0.00014       1.49331
   395    H   18  px     Ryd( 2p)     0.00015       2.66366
   396    H   18  py     Ryd( 2p)     0.00008       1.94875
   397    H   18  pz     Ryd( 2p)     0.00006       1.94781
 
   398    H   19  S      Val( 1S)     0.40524       0.12746
   399    H   19  S      Ryd( 2S)     0.00040       0.37034
   400    H   19  S      Ryd( 3S)     0.00033       0.87305
   401    H   19  S      Ryd( 4S)     0.00004       1.88293
   402    H   19  px     Ryd( 2p)     0.00009       2.13851
   403    H   19  py     Ryd( 2p)     0.00013       2.55377
   404    H   19  pz     Ryd( 2p)     0.00007       1.82053
 
   405    H   20  S      Val( 1S)     0.40313       0.13343
   406    H   20  S      Ryd( 2S)     0.00040       0.33258
   407    H   20  S      Ryd( 3S)     0.00046       0.85324
   408    H   20  S      Ryd( 4S)     0.00011       1.89351
   409    H   20  px     Ryd( 2p)     0.00007       2.07602
   410    H   20  py     Ryd( 2p)     0.00011       2.14608
   411    H   20  pz     Ryd( 2p)     0.00010       2.28418
 
   412    H   21  S      Val( 1S)     0.39687       0.13967
   413    H   21  S      Ryd( 2S)     0.00034       0.43851
   414    H   21  S      Ryd( 4S)     0.00052       1.62516
   415    H   21  S      Ryd( 3S)     0.00003       1.19000
   416    H   21  px     Ryd( 2p)     0.00009       2.07953
   417    H   21  py     Ryd( 2p)     0.00012       2.31408
   418    H   21  pz     Ryd( 2p)     0.00011       2.36315
 
   419    H   22  S      Val( 1S)     0.40076       0.13255
   420    H   22  S      Ryd( 2S)     0.00045       0.53045
   421    H   22  S      Ryd( 4S)     0.00051       1.44882
   422    H   22  S      Ryd( 3S)     0.00003       1.09698
   423    H   22  px     Ryd( 2p)     0.00014       2.74155
   424    H   22  py     Ryd( 2p)     0.00007       1.91816
   425    H   22  pz     Ryd( 2p)     0.00009       1.98753
 
   426    H   23  S      Val( 1S)     0.38762       0.12216
   427    H   23  S      Ryd( 2S)     0.00079       0.99300
   428    H   23  S      Ryd( 3S)     0.00075       1.64681
   429    H   23  S      Ryd( 4S)     0.00015       3.34740
   430    H   23  px     Ryd( 2p)     0.00011       1.97600
   431    H   23  py     Ryd( 2p)     0.00008       2.06558
   432    H   23  pz     Ryd( 2p)     0.00025       2.97972
 
   433    H   24  S      Val( 1S)     0.39227       0.13655
   434    H   24  S      Ryd( 2S)     0.00048       0.57199
   435    H   24  S      Ryd( 4S)     0.00044       1.57351
   436    H   24  S      Ryd( 3S)     0.00004       0.95133
   437    H   24  px     Ryd( 2p)     0.00014       1.85879
   438    H   24  py     Ryd( 2p)     0.00015       2.24253
   439    H   24  pz     Ryd( 2p)     0.00017       2.50758
 
   440    H   25  S      Val( 1S)     0.39356       0.13847
   441    H   25  S      Ryd( 2S)     0.00027       0.37042
   442    H   25  S      Ryd( 4S)     0.00026       1.50673
   443    H   25  S      Ryd( 3S)     0.00002       0.98624
   444    H   25  px     Ryd( 2p)     0.00013       1.89225
   445    H   25  py     Ryd( 2p)     0.00010       1.99668
   446    H   25  pz     Ryd( 2p)     0.00019       2.62070
 
   447    H   26  S      Val( 1S)     0.39168       0.13369
   448    H   26  S      Ryd( 2S)     0.00016       0.43336
   449    H   26  S      Ryd( 4S)     0.00026       1.55308
   450    H   26  S      Ryd( 3S)     0.00005       1.31278
   451    H   26  px     Ryd( 2p)     0.00013       1.95702
   452    H   26  py     Ryd( 2p)     0.00020       2.48690
   453    H   26  pz     Ryd( 2p)     0.00003       1.95478
 
   454    H   27  S      Val( 1S)     0.32247       0.17109
   455    H   27  S      Ryd( 2S)     0.00093       0.55576
   456    H   27  S      Ryd( 3S)     0.00057       1.34015
   457    H   27  S      Ryd( 4S)     0.00018       2.08272
   458    H   27  px     Ryd( 2p)     0.00025       1.95527
   459    H   27  py     Ryd( 2p)     0.00023       1.95297
   460    H   27  pz     Ryd( 2p)     0.00028       2.78200
 
   461    H   28  S      Val( 1S)     0.40666       0.12608
   462    H   28  S      Ryd( 2S)     0.00033       0.37597
   463    H   28  S      Ryd( 4S)     0.00042       1.43606
   464    H   28  S      Ryd( 3S)     0.00002       1.29408
   465    H   28  px     Ryd( 2p)     0.00007       1.92011
   466    H   28  py     Ryd( 2p)     0.00016       2.75207
   467    H   28  pz     Ryd( 2p)     0.00007       1.96811
 
   468    H   29  S      Val( 1S)     0.40856       0.12186
   469    H   29  S      Ryd( 2S)     0.00041       0.50960
   470    H   29  S      Ryd( 4S)     0.00043       1.76194
   471    H   29  S      Ryd( 3S)     0.00001       0.95477
   472    H   29  px     Ryd( 2p)     0.00007       1.92054
   473    H   29  py     Ryd( 2p)     0.00007       1.95275
   474    H   29  pz     Ryd( 2p)     0.00015       2.81665
 
   475    H   30  S      Val( 1S)     0.40068       0.12986
   476    H   30  S      Ryd( 2S)     0.00073       0.39796
   477    H   30  S      Ryd( 3S)     0.00046       1.01026
   478    H   30  S      Ryd( 4S)     0.00012       1.75340
   479    H   30  px     Ryd( 2p)     0.00008       1.93978
   480    H   30  py     Ryd( 2p)     0.00006       1.87947
   481    H   30  pz     Ryd( 2p)     0.00014       2.76404
 
   482    H   31  S      Val( 1S)     0.40145       0.12693
   483    H   31  S      Ryd( 2S)     0.00052       0.33501
   484    H   31  S      Ryd( 3S)     0.00030       1.14574
   485    H   31  S      Ryd( 4S)     0.00007       1.65724
   486    H   31  px     Ryd( 2p)     0.00013       2.33660
   487    H   31  py     Ryd( 2p)     0.00009       2.12802
   488    H   31  pz     Ryd( 2p)     0.00008       2.05660
 
   489    H   32  S      Val( 1S)     0.39647       0.14183
   490    H   32  S      Ryd( 2S)     0.00078       0.46993
   491    H   32  S      Ryd( 3S)     0.00057       1.14367
   492    H   32  S      Ryd( 4S)     0.00011       1.59552
   493    H   32  px     Ryd( 2p)     0.00007       1.88865
   494    H   32  py     Ryd( 2p)     0.00014       2.68574
   495    H   32  pz     Ryd( 2p)     0.00006       2.02342
 
   496    H   33  S      Val( 1S)     0.39067       0.12481
   497    H   33  S      Ryd( 2S)     0.00113       0.31476
   498    H   33  S      Ryd( 3S)     0.00041       1.13485
   499    H   33  S      Ryd( 4S)     0.00003       1.41669
   500    H   33  px     Ryd( 2p)     0.00008       1.93494
   501    H   33  py     Ryd( 2p)     0.00009       2.24097
   502    H   33  pz     Ryd( 2p)     0.00011       2.36201
 
   503    H   34  S      Val( 1S)     0.39674       0.12548
   504    H   34  S      Ryd( 2S)     0.00021       0.34249
   505    H   34  S      Ryd( 3S)     0.00043       1.19497
   506    H   34  S      Ryd( 4S)     0.00003       1.46725
   507    H   34  px     Ryd( 2p)     0.00008       1.81811
   508    H   34  py     Ryd( 2p)     0.00008       2.14221
   509    H   34  pz     Ryd( 2p)     0.00013       2.55773
 
   510    H   35  S      Val( 1S)     0.39220       0.12693
   511    H   35  S      Ryd( 2S)     0.00050       0.52800
   512    H   35  S      Ryd( 4S)     0.00046       1.40242
   513    H   35  S      Ryd( 3S)     0.00002       0.95647
   514    H   35  px     Ryd( 2p)     0.00011       2.28811
   515    H   35  py     Ryd( 2p)     0.00010       2.41578
   516    H   35  pz     Ryd( 2p)     0.00007       1.83430

 WARNING:  Population inversion found on atom  C    1
           Population inversion found on atom  C    2
           Population inversion found on atom  C    3
           Population inversion found on atom  C    4
           Population inversion found on atom  S    5
           Population inversion found on atom  C    6
           Population inversion found on atom  N    7
           Population inversion found on atom  C    8
           Population inversion found on atom  C    9
           Population inversion found on atom  C   11
           Population inversion found on atom  C   12
           Population inversion found on atom  S   13
           Population inversion found on atom  C   15
           Population inversion found on atom  C   16
           Population inversion found on atom  C   17
           Population inversion found on atom  H   20
           Population inversion found on atom  H   21
           Population inversion found on atom  H   22
           Population inversion found on atom  H   24
           Population inversion found on atom  H   25
           Population inversion found on atom  H   26
           Population inversion found on atom  H   28
           Population inversion found on atom  H   29
           Population inversion found on atom  H   34
           Population inversion found on atom  H   35


 Summary of Natural Population Analysis:                  
                                                          
                                       Natural Population 
                Natural  -----------------------------------------------
    Atom  No    Charge         Core      Valence    Rydberg      Total
 -----------------------------------------------------------------------
      C    1   -0.28094      0.99966     2.27709    0.00419     3.28094
      C    2   -0.19911      0.99960     2.19034    0.00917     3.19911
      C    3    0.05386      0.99941     1.93143    0.01530     2.94614
      C    4   -0.09867      0.99944     2.08738    0.01186     3.09867
      S    5    0.19998      4.99939     2.78246    0.01817     7.80002
      C    6    0.05900      0.99959     1.92365    0.01777     2.94100
      N    7   -0.24410      0.99962     2.73378    0.01071     3.74410
      C    8   -0.04745      0.99947     2.03210    0.01589     3.04745
      C    9   -0.08957      0.99948     2.07501    0.01508     3.08957
      C   10   -0.12968      0.99944     2.11949    0.01075     3.12968
      C   11   -0.12430      0.99954     2.11349    0.01127     3.12430
      C   12   -0.19602      0.99954     2.18599    0.01049     3.19602
      S   13    0.21538      4.99937     2.76475    0.02050     7.78462
      N   14   -0.33298      0.99975     2.82154    0.01169     3.83298
      C   15   -0.08355      0.99964     2.07316    0.01076     3.08355
      C   16   -0.29635      0.99966     2.29234    0.00435     3.29635
      C   17   -0.29892      0.99962     2.29264    0.00666     3.29892
      H   18    0.10385      0.00000     0.39465    0.00150     0.39615
      H   19    0.09369      0.00000     0.40524    0.00107     0.40631
      H   20    0.09561      0.00000     0.40313    0.00125     0.40439
      H   21    0.10193      0.00000     0.39687    0.00121     0.39807
      H   22    0.09796      0.00000     0.40076    0.00128     0.40204
      H   23    0.11024      0.00000     0.38762    0.00213     0.38976
      H   24    0.10632      0.00000     0.39227    0.00141     0.39368
      H   25    0.10547      0.00000     0.39356    0.00097     0.39453
      H   26    0.10748      0.00000     0.39168    0.00084     0.39252
      H   27    0.17509      0.00000     0.32247    0.00244     0.32491
      H   28    0.09227      0.00000     0.40666    0.00107     0.40773
      H   29    0.09029      0.00000     0.40856    0.00115     0.40971
      H   30    0.09772      0.00000     0.40068    0.00159     0.40228
      H   31    0.09738      0.00000     0.40145    0.00118     0.40262
      H   32    0.10180      0.00000     0.39647    0.00173     0.39820
      H   33    0.10747      0.00000     0.39067    0.00186     0.39253
      H   34    0.10231      0.00000     0.39674    0.00095     0.39769
      H   35    0.10655      0.00000     0.39220    0.00126     0.39345
 =======================================================================
   * Total *   -0.00000     24.99221    45.77831    0.22948    71.00000

                                 Natural Population      
 --------------------------------------------------------
   Core                      24.99221 ( 99.9688% of  25)
   Valence                   45.77831 ( 99.5181% of  46)
   Natural Minimal Basis     70.77052 ( 99.6768% of  71)
   Natural Rydberg Basis      0.22948 (  0.3232% of  71)
 --------------------------------------------------------

    Atom  No          Natural Electron Configuration
 ----------------------------------------------------------------------------
      C    1      [core]2S( 0.54)2p( 1.73)
      C    2      [core]2S( 0.51)2p( 1.68)
      C    3      [core]2S( 0.42)2p( 1.51)3p( 0.01)
      C    4      [core]2S( 0.48)2p( 1.61)
      S    5      [core]3S( 0.82)3p( 1.96)3d( 0.01)5p( 0.01)
      C    6      [core]2S( 0.46)2p( 1.46)4p( 0.01)
      N    7      [core]2S( 0.68)2p( 2.05)3p( 0.01)
      C    8      [core]2S( 0.46)2p( 1.57)3p( 0.01)
      C    9      [core]2S( 0.48)2p( 1.59)4p( 0.01)
      C   10      [core]2S( 0.47)2p( 1.65)3p( 0.01)
      C   11      [core]2S( 0.48)2p( 1.64)
      C   12      [core]2S( 0.52)2p( 1.67)4p( 0.01)
      S   13      [core]3S( 0.81)3p( 1.96)3d( 0.01)
      N   14      [core]2S( 0.66)2p( 2.16)3p( 0.01)
      C   15      [core]2S( 0.50)2p( 1.57)
      C   16      [core]2S( 0.55)2p( 1.75)
      C   17      [core]2S( 0.53)2p( 1.76)
      H   18            1S( 0.39)
      H   19            1S( 0.41)
      H   20            1S( 0.40)
      H   21            1S( 0.40)
      H   22            1S( 0.40)
      H   23            1S( 0.39)
      H   24            1S( 0.39)
      H   25            1S( 0.39)
      H   26            1S( 0.39)
      H   27            1S( 0.32)
      H   28            1S( 0.41)
      H   29            1S( 0.41)
      H   30            1S( 0.40)
      H   31            1S( 0.40)
      H   32            1S( 0.40)
      H   33            1S( 0.39)
      H   34            1S( 0.40)
      H   35            1S( 0.39)


 NBO analysis skipped by request.
 1\1\GINC-NODE303\SP\UB3LYP\6-311++G(d,p)\C13H18N2S2(1-,2)\VSC10255\11-
 Dec-2020\0\\# B3LYP/6-311++G(d,p) empiricaldispersion=gd3bj scf=xqc po
 p=npa geom=check\\CID_61346764_JID_7915_Energie_anion\\-1,2\C,0,-0.404
 6216309,0.0786315721,1.1005509445\C,0,0.423773519,0.2528394995,2.38250
 63406\C,0,1.2762351332,1.4904798608,2.3398149362\C,0,2.6462547359,1.56
 08860162,2.3089463161\S,0,3.1498683844,3.2389895612,2.2382324763\C,0,1
 .456645043,3.7033444543,2.2532868462\N,0,0.6228015802,2.7136189444,2.3
 069025927\C,0,1.0741452252,5.167386687,2.1538009229\C,0,-0.193175948,5
 .4353457817,2.9406633394\C,0,-0.3347519528,5.5648797074,4.2966492325\C
 ,0,-1.682898162,5.80190786,4.7031002337\C,0,-2.5536547746,5.8431877077
 ,3.6493044043\S,0,-1.7320946263,5.5860594132,2.1426796863\N,0,2.236577
 2476,5.9762786499,2.5138646324\C,0,2.27792139,7.3418949138,1.989128700
 5\C,0,1.2296137988,8.3298022863,2.5175037853\C,0,3.6609698824,0.458717
 2742,2.3369794075\H,0,-1.0237574375,0.9646838422,0.9304950663\H,0,-1.0
 605088649,-0.7962044015,1.1718000773\H,0,0.2475518834,-0.0506950303,0.
 2294843401\H,0,-0.2548894495,0.3287498754,3.2416840165\H,0,1.047325529
 4,-0.6314204439,2.549968193\H,0,0.8755952322,5.3784546985,1.0938347404
 \H,0,0.4959069569,5.4884407332,4.9908451481\H,0,-1.9877681253,5.935658
 7183,5.7352134723\H,0,-3.6227612557,6.0041924004,3.6665734325\H,0,2.35
 89929602,5.9779178913,3.5243912605\H,0,3.2821425073,7.7276264175,2.203
 0071495\H,0,2.203117255,7.2683130791,0.8967033499\H,0,1.2656990899,8.3
 914327486,3.6114334689\H,0,1.4208730799,9.3319107581,2.1151057287\H,0,
 0.2143491199,8.0366808463,2.2371799023\H,0,4.2881328514,0.4628424603,1
 .4372961125\H,0,4.3297156858,0.5445854417,3.2020571073\H,0,3.168094136
 6,-0.5154202248,2.3930726362\\Version=ES64L-G16RevA.03\State=2-A\HF=-1
 412.3675975\S2=0.750456\S2-1=0.\S2A=0.75\RMSD=7.597e-09\Dipole=-0.8112
 51,0.0676731,0.2977203\Quadrupole=6.6254842,-22.6745502,16.049066,4.94
 0433,5.8235379,-7.6904033\PG=C01 [X(C13H18N2S2)]\\@


 We find comfort among those who agree with us -- growth among those who don't.
 -- Frank A. Clark
 Job cpu time:       0 days  4 hours 10 minutes 25.5 seconds.
 Elapsed time:       0 days  1 hours  2 minutes 47.6 seconds.
 File lengths (MBytes):  RWF=    308 Int=      0 D2E=      0 Chk=     28 Scr=      8
 Normal termination of Gaussian 16 at Fri Dec 11 14:49:41 2020.
