 Entering Gaussian System, Link 0=g16
 Initial command:
 /apps/brussel/CO7/ivybridge-ib/software/Gaussian/G16.A.03-intel-2017b/g16/l1.exe "/scratch/brussel/102/vsc10255/Gau-448.inp" -scrdir="/scratch/brussel/102/vsc10255/"
 Entering Link 1 = /apps/brussel/CO7/ivybridge-ib/software/Gaussian/G16.A.03-intel-2017b/g16/l1.exe.bin PID=       452.
  
 Copyright (c) 1988,1990,1992,1993,1995,1998,2003,2009,2016,
            Gaussian, Inc.  All Rights Reserved.
  
 This is part of the Gaussian(R) 16 program.  It is based on
 the Gaussian(R) 09 system (copyright 2009, Gaussian, Inc.),
 the Gaussian(R) 03 system (copyright 2003, Gaussian, Inc.),
 the Gaussian(R) 98 system (copyright 1998, Gaussian, Inc.),
 the Gaussian(R) 94 system (copyright 1995, Gaussian, Inc.),
 the Gaussian 92(TM) system (copyright 1992, Gaussian, Inc.),
 the Gaussian 90(TM) system (copyright 1990, Gaussian, Inc.),
 the Gaussian 88(TM) system (copyright 1988, Gaussian, Inc.),
 the Gaussian 86(TM) system (copyright 1986, Carnegie Mellon
 University), and the Gaussian 82(TM) system (copyright 1983,
 Carnegie Mellon University). Gaussian is a federally registered
 trademark of Gaussian, Inc.
  
 This software contains proprietary and confidential information,
 including trade secrets, belonging to Gaussian, Inc.
  
 This software is provided under written license and may be
 used, copied, transmitted, or stored only in accord with that
 written license.
  
 The following legend is applicable only to US Government
 contracts under FAR:
  
                    RESTRICTED RIGHTS LEGEND
  
 Use, reproduction and disclosure by the US Government is
 subject to restrictions as set forth in subparagraphs (a)
 and (c) of the Commercial Computer Software - Restricted
 Rights clause in FAR 52.227-19.
  
 Gaussian, Inc.
 340 Quinnipiac St., Bldg. 40, Wallingford CT 06492
  
  
 ---------------------------------------------------------------
 Warning -- This program may not be used in any manner that
 competes with the business of Gaussian, Inc. or will provide
 assistance to any competitor of Gaussian, Inc.  The licensee
 of this program is prohibited from giving any competitor of
 Gaussian, Inc. access to this program.  By using this program,
 the user acknowledges that Gaussian, Inc. is engaged in the
 business of creating and licensing software in the field of
 computational chemistry and represents and warrants to the
 licensee that it is not a competitor of Gaussian, Inc. and that
 it will not use this program in any manner prohibited above.
 ---------------------------------------------------------------
  

 Cite this work as:
 Gaussian 16, Revision A.03,
 M. J. Frisch, G. W. Trucks, H. B. Schlegel, G. E. Scuseria, 
 M. A. Robb, J. R. Cheeseman, G. Scalmani, V. Barone, 
 G. A. Petersson, H. Nakatsuji, X. Li, M. Caricato, A. V. Marenich, 
 J. Bloino, B. G. Janesko, R. Gomperts, B. Mennucci, H. P. Hratchian, 
 J. V. Ortiz, A. F. Izmaylov, J. L. Sonnenberg, D. Williams-Young, 
 F. Ding, F. Lipparini, F. Egidi, J. Goings, B. Peng, A. Petrone, 
 T. Henderson, D. Ranasinghe, V. G. Zakrzewski, J. Gao, N. Rega, 
 G. Zheng, W. Liang, M. Hada, M. Ehara, K. Toyota, R. Fukuda, 
 J. Hasegawa, M. Ishida, T. Nakajima, Y. Honda, O. Kitao, H. Nakai, 
 T. Vreven, K. Throssell, J. A. Montgomery, Jr., J. E. Peralta, 
 F. Ogliaro, M. J. Bearpark, J. J. Heyd, E. N. Brothers, K. N. Kudin, 
 V. N. Staroverov, T. A. Keith, R. Kobayashi, J. Normand, 
 K. Raghavachari, A. P. Rendell, J. C. Burant, S. S. Iyengar, 
 J. Tomasi, M. Cossi, J. M. Millam, M. Klene, C. Adamo, R. Cammi, 
 J. W. Ochterski, R. L. Martin, K. Morokuma, O. Farkas, 
 J. B. Foresman, and D. J. Fox, Gaussian, Inc., Wallingford CT, 2016.
 
 ******************************************
 Gaussian 16:  ES64L-G16RevA.03 25-Dec-2016
                 8-Dec-2020 
 ******************************************
 %chk=JID_471.chk
 %mem=8GB
 %nprocshared=4
 Will use up to    4 processors via shared memory.
 -----------------------------------------------------------
 # opt freq B3LYP/6-31G(d) empiricaldispersion=gd3bj scf=xqc
 -----------------------------------------------------------
 1/18=20,19=15,26=3,38=1/1,3;
 2/9=110,12=2,17=6,18=5,40=1/2;
 3/5=1,6=6,7=1,11=2,25=1,30=1,71=1,74=-5,124=41/1,2,3;
 4//1;
 5/5=2,8=3,13=1,38=5/2,8;
 6/7=2,8=2,9=2,10=2,28=1/1;
 7//1,2,3,16;
 1/18=20,19=15,26=3/3(2);
 2/9=110/2;
 99//99;
 2/9=110/2;
 3/5=1,6=6,7=1,11=2,25=1,30=1,71=1,74=-5,124=41/1,2,3;
 4/5=5,16=3,69=1/1;
 5/5=2,8=3,13=1,38=5/2,8;
 7//1,2,3,16;
 1/18=20,19=15,26=3/3(-5);
 2/9=110/2;
 6/7=2,8=2,9=2,10=2,19=2,28=1/1;
 99/9=1/99;
 -----------------------------
 CID_43184582_JID_471_neutraal
 -----------------------------
 Symbolic Z-matrix:
 Charge =  0 Multiplicity = 1
 C                     0.95744   0.08532  -0.03016 
 C                     0.60128  -0.30908   1.39484 
 C                     1.14425   0.65788   2.45383 
 C                     0.65075   2.11485   2.34679 
 C                    -0.90299   2.28227   2.40965 
 C                    -1.68802   1.58576   3.54401 
 C                    -1.20425   1.7633    4.97613 
 O                    -1.27949   3.64647   2.1404 
 C                    -1.54233   4.50225   3.23519 
 N                     1.40053   2.92399   3.32301 
 H                     0.45742   1.01151  -0.32771 
 H                     0.64166  -0.69849  -0.72624 
 H                     2.03757   0.22212  -0.14226 
 H                    -0.48469  -0.41312   1.48419 
 H                     1.02137  -1.3028    1.59339 
 H                     0.90532   0.24947   3.44266 
 H                     2.24107   0.64818   2.3848 
 H                     0.968     2.50788   1.37257 
 H                    -1.26463   1.78072   1.50182 
 H                    -2.73564   1.9075    3.49447 
 H                    -1.69691   0.50682   3.34547 
 H                    -1.12434   2.81045   5.27099 
 H                    -1.91441   1.28741   5.66157 
 H                    -0.23832   1.27954   5.1396 
 H                    -2.45018   4.19657   3.76144 
 H                    -0.69826   4.55838   3.92394 
 H                    -1.71598   5.50757   2.84009 
 H                     1.19714   3.90646   3.14005 
 H                     1.08256   2.73418   4.26838 
 

 GradGradGradGradGradGradGradGradGradGradGradGradGradGradGradGradGradGrad
 Berny optimization.
 Initialization pass.
                           ----------------------------
                           !    Initial Parameters    !
                           ! (Angstroms and Degrees)  !
 --------------------------                            --------------------------
 ! Name  Definition              Value          Derivative Info.                !
 --------------------------------------------------------------------------------
 ! R1    R(1,2)                  1.5209         estimate D2E/DX2                !
 ! R2    R(1,11)                 1.0938         estimate D2E/DX2                !
 ! R3    R(1,12)                 1.0948         estimate D2E/DX2                !
 ! R4    R(1,13)                 1.0945         estimate D2E/DX2                !
 ! R5    R(2,3)                  1.5334         estimate D2E/DX2                !
 ! R6    R(2,14)                 1.0946         estimate D2E/DX2                !
 ! R7    R(2,15)                 1.097          estimate D2E/DX2                !
 ! R8    R(3,4)                  1.542          estimate D2E/DX2                !
 ! R9    R(3,16)                 1.0962         estimate D2E/DX2                !
 ! R10   R(3,17)                 1.099          estimate D2E/DX2                !
 ! R11   R(4,5)                  1.564          estimate D2E/DX2                !
 ! R12   R(4,10)                 1.4731         estimate D2E/DX2                !
 ! R13   R(4,18)                 1.0974         estimate D2E/DX2                !
 ! R14   R(5,6)                  1.5454         estimate D2E/DX2                !
 ! R15   R(5,8)                  1.4406         estimate D2E/DX2                !
 ! R16   R(5,19)                 1.0984         estimate D2E/DX2                !
 ! R17   R(6,7)                  1.522          estimate D2E/DX2                !
 ! R18   R(6,20)                 1.097          estimate D2E/DX2                !
 ! R19   R(6,21)                 1.0971         estimate D2E/DX2                !
 ! R20   R(7,22)                 1.0908         estimate D2E/DX2                !
 ! R21   R(7,23)                 1.0957         estimate D2E/DX2                !
 ! R22   R(7,24)                 1.0926         estimate D2E/DX2                !
 ! R23   R(8,9)                  1.4142         estimate D2E/DX2                !
 ! R24   R(9,25)                 1.093          estimate D2E/DX2                !
 ! R25   R(9,26)                 1.0909         estimate D2E/DX2                !
 ! R26   R(9,27)                 1.094          estimate D2E/DX2                !
 ! R27   R(10,28)                1.0198         estimate D2E/DX2                !
 ! R28   R(10,29)                1.0153         estimate D2E/DX2                !
 ! A1    A(2,1,11)             111.5567         estimate D2E/DX2                !
 ! A2    A(2,1,12)             110.0304         estimate D2E/DX2                !
 ! A3    A(2,1,13)             111.0684         estimate D2E/DX2                !
 ! A4    A(11,1,12)            107.5426         estimate D2E/DX2                !
 ! A5    A(11,1,13)            108.5081         estimate D2E/DX2                !
 ! A6    A(12,1,13)            107.9994         estimate D2E/DX2                !
 ! A7    A(1,2,3)              113.6178         estimate D2E/DX2                !
 ! A8    A(1,2,14)             109.4795         estimate D2E/DX2                !
 ! A9    A(1,2,15)             108.3501         estimate D2E/DX2                !
 ! A10   A(3,2,14)             110.7856         estimate D2E/DX2                !
 ! A11   A(3,2,15)             108.0978         estimate D2E/DX2                !
 ! A12   A(14,2,15)            106.2039         estimate D2E/DX2                !
 ! A13   A(2,3,4)              115.7576         estimate D2E/DX2                !
 ! A14   A(2,3,16)             108.1105         estimate D2E/DX2                !
 ! A15   A(2,3,17)             107.7246         estimate D2E/DX2                !
 ! A16   A(4,3,16)             110.1747         estimate D2E/DX2                !
 ! A17   A(4,3,17)             108.8671         estimate D2E/DX2                !
 ! A18   A(16,3,17)            105.7173         estimate D2E/DX2                !
 ! A19   A(3,4,5)              114.6008         estimate D2E/DX2                !
 ! A20   A(3,4,10)             108.0654         estimate D2E/DX2                !
 ! A21   A(3,4,18)             107.9092         estimate D2E/DX2                !
 ! A22   A(5,4,10)             114.8487         estimate D2E/DX2                !
 ! A23   A(5,4,18)             106.5317         estimate D2E/DX2                !
 ! A24   A(10,4,18)            104.15           estimate D2E/DX2                !
 ! A25   A(4,5,6)              119.0723         estimate D2E/DX2                !
 ! A26   A(4,5,8)              110.7013         estimate D2E/DX2                !
 ! A27   A(4,5,19)             104.1809         estimate D2E/DX2                !
 ! A28   A(6,5,8)              115.5462         estimate D2E/DX2                !
 ! A29   A(6,5,19)             103.5109         estimate D2E/DX2                !
 ! A30   A(8,5,19)             101.0626         estimate D2E/DX2                !
 ! A31   A(5,6,7)              118.4666         estimate D2E/DX2                !
 ! A32   A(5,6,20)             108.6493         estimate D2E/DX2                !
 ! A33   A(5,6,21)             108.3324         estimate D2E/DX2                !
 ! A34   A(7,6,20)             108.1685         estimate D2E/DX2                !
 ! A35   A(7,6,21)             106.7128         estimate D2E/DX2                !
 ! A36   A(20,6,21)            105.8142         estimate D2E/DX2                !
 ! A37   A(6,7,22)             112.9305         estimate D2E/DX2                !
 ! A38   A(6,7,23)             109.3868         estimate D2E/DX2                !
 ! A39   A(6,7,24)             111.7238         estimate D2E/DX2                !
 ! A40   A(22,7,23)            107.1764         estimate D2E/DX2                !
 ! A41   A(22,7,24)            108.6529         estimate D2E/DX2                !
 ! A42   A(23,7,24)            106.6837         estimate D2E/DX2                !
 ! A43   A(5,8,9)              118.4848         estimate D2E/DX2                !
 ! A44   A(8,9,25)             110.9695         estimate D2E/DX2                !
 ! A45   A(8,9,26)             112.0923         estimate D2E/DX2                !
 ! A46   A(8,9,27)             107.8174         estimate D2E/DX2                !
 ! A47   A(25,9,26)            110.6771         estimate D2E/DX2                !
 ! A48   A(25,9,27)            107.4001         estimate D2E/DX2                !
 ! A49   A(26,9,27)            107.6708         estimate D2E/DX2                !
 ! A50   A(4,10,28)            107.9846         estimate D2E/DX2                !
 ! A51   A(4,10,29)            110.7917         estimate D2E/DX2                !
 ! A52   A(28,10,29)           106.5397         estimate D2E/DX2                !
 ! D1    D(11,1,2,3)           -67.1119         estimate D2E/DX2                !
 ! D2    D(11,1,2,14)           57.3247         estimate D2E/DX2                !
 ! D3    D(11,1,2,15)          172.7402         estimate D2E/DX2                !
 ! D4    D(12,1,2,3)           173.615          estimate D2E/DX2                !
 ! D5    D(12,1,2,14)          -61.9485         estimate D2E/DX2                !
 ! D6    D(12,1,2,15)           53.467          estimate D2E/DX2                !
 ! D7    D(13,1,2,3)            54.083          estimate D2E/DX2                !
 ! D8    D(13,1,2,14)          178.5196         estimate D2E/DX2                !
 ! D9    D(13,1,2,15)          -66.0649         estimate D2E/DX2                !
 ! D10   D(1,2,3,4)             60.2707         estimate D2E/DX2                !
 ! D11   D(1,2,3,16)          -175.6254         estimate D2E/DX2                !
 ! D12   D(1,2,3,17)           -61.813          estimate D2E/DX2                !
 ! D13   D(14,2,3,4)           -63.4583         estimate D2E/DX2                !
 ! D14   D(14,2,3,16)           60.6456         estimate D2E/DX2                !
 ! D15   D(14,2,3,17)          174.4581         estimate D2E/DX2                !
 ! D16   D(15,2,3,4)          -179.4388         estimate D2E/DX2                !
 ! D17   D(15,2,3,16)          -55.3349         estimate D2E/DX2                !
 ! D18   D(15,2,3,17)           58.4775         estimate D2E/DX2                !
 ! D19   D(2,3,4,5)             57.7128         estimate D2E/DX2                !
 ! D20   D(2,3,4,10)          -172.8313         estimate D2E/DX2                !
 ! D21   D(2,3,4,18)           -60.7672         estimate D2E/DX2                !
 ! D22   D(16,3,4,5)           -65.3111         estimate D2E/DX2                !
 ! D23   D(16,3,4,10)           64.1448         estimate D2E/DX2                !
 ! D24   D(16,3,4,18)          176.2089         estimate D2E/DX2                !
 ! D25   D(17,3,4,5)           179.1867         estimate D2E/DX2                !
 ! D26   D(17,3,4,10)          -51.3574         estimate D2E/DX2                !
 ! D27   D(17,3,4,18)           60.7067         estimate D2E/DX2                !
 ! D28   D(3,4,5,6)             49.4606         estimate D2E/DX2                !
 ! D29   D(3,4,5,8)           -173.016          estimate D2E/DX2                !
 ! D30   D(3,4,5,19)           -65.1338         estimate D2E/DX2                !
 ! D31   D(10,4,5,6)           -76.5466         estimate D2E/DX2                !
 ! D32   D(10,4,5,8)            60.9767         estimate D2E/DX2                !
 ! D33   D(10,4,5,19)          168.8589         estimate D2E/DX2                !
 ! D34   D(18,4,5,6)           168.7151         estimate D2E/DX2                !
 ! D35   D(18,4,5,8)           -53.7615         estimate D2E/DX2                !
 ! D36   D(18,4,5,19)           54.1207         estimate D2E/DX2                !
 ! D37   D(3,4,10,28)          170.0903         estimate D2E/DX2                !
 ! D38   D(3,4,10,29)          -73.5879         estimate D2E/DX2                !
 ! D39   D(5,4,10,28)          -60.5928         estimate D2E/DX2                !
 ! D40   D(5,4,10,29)           55.729          estimate D2E/DX2                !
 ! D41   D(18,4,10,28)          55.52           estimate D2E/DX2                !
 ! D42   D(18,4,10,29)         171.8418         estimate D2E/DX2                !
 ! D43   D(4,5,6,7)             49.6887         estimate D2E/DX2                !
 ! D44   D(4,5,6,20)           173.561          estimate D2E/DX2                !
 ! D45   D(4,5,6,21)           -71.9306         estimate D2E/DX2                !
 ! D46   D(8,5,6,7)            -85.8733         estimate D2E/DX2                !
 ! D47   D(8,5,6,20)            37.999          estimate D2E/DX2                !
 ! D48   D(8,5,6,21)           152.5074         estimate D2E/DX2                !
 ! D49   D(19,5,6,7)           164.6409         estimate D2E/DX2                !
 ! D50   D(19,5,6,20)          -71.4867         estimate D2E/DX2                !
 ! D51   D(19,5,6,21)           43.0217         estimate D2E/DX2                !
 ! D52   D(4,5,8,9)            -97.8247         estimate D2E/DX2                !
 ! D53   D(6,5,8,9)             41.3193         estimate D2E/DX2                !
 ! D54   D(19,5,8,9)           152.2536         estimate D2E/DX2                !
 ! D55   D(5,6,7,22)            55.6207         estimate D2E/DX2                !
 ! D56   D(5,6,7,23)           174.8821         estimate D2E/DX2                !
 ! D57   D(5,6,7,24)           -67.2251         estimate D2E/DX2                !
 ! D58   D(20,6,7,22)          -68.489          estimate D2E/DX2                !
 ! D59   D(20,6,7,23)           50.7724         estimate D2E/DX2                !
 ! D60   D(20,6,7,24)          168.6652         estimate D2E/DX2                !
 ! D61   D(21,6,7,22)          178.0573         estimate D2E/DX2                !
 ! D62   D(21,6,7,23)          -62.6812         estimate D2E/DX2                !
 ! D63   D(21,6,7,24)           55.2116         estimate D2E/DX2                !
 ! D64   D(5,8,9,25)           -67.9261         estimate D2E/DX2                !
 ! D65   D(5,8,9,26)            56.384          estimate D2E/DX2                !
 ! D66   D(5,8,9,27)           174.7149         estimate D2E/DX2                !
 --------------------------------------------------------------------------------
 Trust Radius=3.00D-01 FncErr=1.00D-07 GrdErr=1.00D-06 EigMax=2.50D+02 EigMin=1.00D-04
 Number of steps in this run=    156 maximum allowed number of steps=    174.
 GradGradGradGradGradGradGradGradGradGradGradGradGradGradGradGradGradGrad

                          Input orientation:                          
 ---------------------------------------------------------------------
 Center     Atomic      Atomic             Coordinates (Angstroms)
 Number     Number       Type             X           Y           Z
 ---------------------------------------------------------------------
      1          6           0        0.957440    0.085320   -0.030160
      2          6           0        0.601280   -0.309080    1.394840
      3          6           0        1.144250    0.657880    2.453830
      4          6           0        0.650750    2.114850    2.346790
      5          6           0       -0.902990    2.282270    2.409650
      6          6           0       -1.688020    1.585760    3.544010
      7          6           0       -1.204250    1.763300    4.976130
      8          8           0       -1.279490    3.646470    2.140400
      9          6           0       -1.542330    4.502250    3.235190
     10          7           0        1.400530    2.923990    3.323010
     11          1           0        0.457420    1.011510   -0.327710
     12          1           0        0.641660   -0.698490   -0.726240
     13          1           0        2.037570    0.222120   -0.142260
     14          1           0       -0.484690   -0.413120    1.484190
     15          1           0        1.021370   -1.302800    1.593390
     16          1           0        0.905320    0.249470    3.442660
     17          1           0        2.241070    0.648180    2.384800
     18          1           0        0.968000    2.507880    1.372570
     19          1           0       -1.264630    1.780720    1.501820
     20          1           0       -2.735640    1.907500    3.494470
     21          1           0       -1.696910    0.506820    3.345470
     22          1           0       -1.124340    2.810450    5.270990
     23          1           0       -1.914410    1.287410    5.661570
     24          1           0       -0.238320    1.279540    5.139600
     25          1           0       -2.450180    4.196570    3.761440
     26          1           0       -0.698260    4.558380    3.923940
     27          1           0       -1.715980    5.507570    2.840090
     28          1           0        1.197140    3.906460    3.140050
     29          1           0        1.082560    2.734180    4.268380
 ---------------------------------------------------------------------
                    Distance matrix (angstroms):
                    1          2          3          4          5
     1  C    0.000000
     2  C    1.520864   0.000000
     3  C    2.555960   1.533391   0.000000
     4  C    3.140532   2.604629   1.541999   0.000000
     5  C    3.773654   3.163505   2.613769   1.563998   0.000000
     6  C    4.693024   3.667458   3.173517   2.680134   1.545371
     7  C    5.705389   4.514458   3.619310   3.236980   2.635699
     8  O    4.732544   4.442919   3.860625   2.472708   1.440586
     9  C    6.034951   5.579503   4.754726   3.361329   2.453280
    10  N    4.415668   3.848296   2.440575   1.473052   2.559733
    11  H    1.093793   2.175277   2.886824   2.899601   3.310391
    12  H    1.094807   2.156908   3.493591   4.166351   4.593983
    13  H    1.094514   2.169742   2.779854   3.420682   4.404924
    14  H    2.149753   1.094595   2.177312   2.902402   2.880378
    15  H    2.137026   1.096985   2.144696   3.519276   4.149960
    16  H    3.477088   2.144291   1.096208   2.178389   2.910218
    17  H    2.792230   2.141326   1.099033   2.163720   3.543442
    18  H    2.799386   2.840817   2.150044   1.097372   2.151055
    19  H    3.187309   2.803628   2.823083   2.119976   1.098404
    20  H    5.420535   4.522909   4.206902   3.581592   2.162381
    21  H    4.314871   3.122872   2.981616   3.015730   2.158307
    22  H    6.313662   5.266286   4.209091   3.490809   2.918088
    23  H    6.487552   5.204081   4.476752   4.272291   3.547915
    24  H    5.438972   4.153537   3.084043   3.047618   2.983267
    25  H    6.549082   5.934061   5.210767   3.993815   2.808145
    26  H    6.195524   5.637137   4.557408   3.205943   2.741471
    27  H    6.692257   6.425874   5.643545   4.165970   3.353922
    28  H    4.970795   4.601259   3.320688   2.034126   2.753547
    29  H    5.050699   4.213110   2.758155   2.064591   2.757083
                    6          7          8          9         10
     6  C    0.000000
     7  C    1.522012   0.000000
     8  O    2.526568   3.404902   0.000000
     9  C    2.936411   3.262977   1.414217   0.000000
    10  N    3.373254   3.296193   3.017126   3.340515   0.000000
    11  H    4.463507   5.608659   4.006425   5.373874   4.227859
    12  H    5.374034   6.479569   5.548614   6.892781   5.485861
    13  H    5.415544   6.251604   5.285792   6.522451   4.440047
    14  H    3.112295   4.177106   4.188387   5.324046   4.251072
    15  H    4.414690   5.079103   5.485294   6.554897   4.582696
    16  H    2.919136   3.015543   4.243688   4.911229   2.722610
    17  H    4.202448   4.452944   4.630747   5.467279   2.601164
    18  H    3.552450   4.273022   2.633849   3.707913   2.040697
    19  H    2.094710   3.474878   1.972062   3.238582   3.424453
    20  H    1.097032   2.135712   2.641571   2.867742   4.262693
    21  H    1.097091   2.116721   3.388781   3.999940   3.929039
    22  H    2.190904   1.090803   3.244009   2.679811   3.191001
    23  H    2.150424   1.095731   4.285665   4.044868   4.374481
    24  H    2.177455   1.092596   3.959999   3.963973   2.947888
    25  H    2.728460   2.991424   2.073860   1.092964   4.079172
    26  H    3.156017   3.029126   2.085767   1.090863   2.727135
    27  H    3.984580   4.340978   2.035628   1.094041   4.076853
    28  H    3.724645   3.705536   2.683392   2.805123   1.019848
    29  H    3.085400   2.583219   3.307545   3.329204   1.015311
                   11         12         13         14         15
    11  H    0.000000
    12  H    1.765466   0.000000
    13  H    1.776064   1.771192   0.000000
    14  H    2.490005   2.497219   3.067681   0.000000
    15  H    3.060179   2.426943   2.523990   1.752619   0.000000
    16  H    3.872597   4.283442   3.759573   2.491337   2.417190
    17  H    3.266669   3.748360   2.570792   3.060592   2.433171
    18  H    2.321803   3.846077   2.943363   3.264201   3.817446
    19  H    2.627607   3.839880   4.004592   2.328422   3.839567
    20  H    5.060384   6.000978   6.232964   3.807004   5.294833
    21  H    4.288135   4.847732   5.117778   2.404190   3.705881
    22  H    6.089630   7.169253   6.782360   5.014021   5.920105
    23  H    6.447726   7.161104   7.101932   4.731427   5.646068
    24  H    5.517914   6.252603   5.847722   4.035817   4.564089
    25  H    5.943054   7.325323   7.153672   5.504386   6.855302
    26  H    5.656183   7.145225   6.543844   5.542004   6.537738
    27  H    5.913813   7.536070   7.135792   6.197508   7.445031
    28  H    4.577475   6.038404   5.005421   4.922316   5.436860
    29  H    4.947973   6.076499   5.164904   4.484806   4.843193
                   16         17         18         19         20
    16  H    0.000000
    17  H    1.749933   0.000000
    18  H    3.064248   2.470587   0.000000
    19  H    3.289418   3.788434   2.351617   0.000000
    20  H    4.001042   5.252133   4.310437   2.480040   0.000000
    21  H    2.616730   4.055928   3.872767   2.282265   1.750162
    22  H    3.744453   4.932696   4.434762   3.909817   2.562739
    23  H    3.735205   5.330464   5.309742   4.238996   2.399011
    24  H    2.290974   3.759643   4.141804   3.812865   3.055715
    25  H    5.190433   6.041029   4.499148   3.513935   2.322198
    26  H    4.622749   5.128185   3.672936   3.728651   3.370835
    27  H    5.906092   6.283248   4.284332   3.985485   3.798476
    28  H    3.681074   3.503795   2.265506   3.641824   4.425857
    29  H    2.624312   3.039970   2.906897   3.751299   3.982586
                   21         22         23         24         25
    21  H    0.000000
    22  H    3.056497   0.000000
    23  H    2.453762   1.759663   0.000000
    24  H    2.437926   1.773691   1.755503   0.000000
    25  H    3.788760   2.440885   3.515787   3.911613   0.000000
    26  H    4.212727   2.247520   3.898413   3.527062   1.796256
    27  H    5.026258   3.678827   5.080342   5.034626   1.762571
    28  H    4.469371   3.336377   4.785314   3.599924   3.711231
    29  H    3.679450   2.425170   3.607763   2.149355   3.856919
                   26         27         28         29
    26  H    0.000000
    27  H    1.763929   0.000000
    28  H    2.152214   3.337633   0.000000
    29  H    2.572482   4.190887   1.631103   0.000000
 Stoichiometry    C8H19NO
 Framework group  C1[X(C8H19NO)]
 Deg. of freedom    81
 Full point group                 C1      NOp   1
 Largest Abelian subgroup         C1      NOp   1
 Largest concise Abelian subgroup C1      NOp   1
                         Standard orientation:                         
 ---------------------------------------------------------------------
 Center     Atomic      Atomic             Coordinates (Angstroms)
 Number     Number       Type             X           Y           Z
 ---------------------------------------------------------------------
      1          6           0       -3.274881   -0.795094   -0.584033
      2          6           0       -2.581495    0.546952   -0.407522
      3          6           0       -1.590655    0.577337    0.762350
      4          6           0       -0.422655   -0.425824    0.677470
      5          6           0        0.464186   -0.285707   -0.603143
      6          6           0        0.993471    1.110650   -1.000908
      7          6           0        1.681931    1.955269    0.061714
      8          8           0        1.423104   -1.358139   -0.678350
      9          6           0        2.740675   -1.117899   -0.224145
     10          7           0        0.316331   -0.375306    1.950746
     11          1           0       -2.571673   -1.572909   -0.895300
     12          1           0       -4.046735   -0.719626   -1.356786
     13          1           0       -3.756862   -1.114196    0.345391
     14          1           0       -2.087070    0.828152   -1.342728
     15          1           0       -3.347893    1.310272   -0.224891
     16          1           0       -1.205254    1.599277    0.856027
     17          1           0       -2.156461    0.386781    1.685077
     18          1           0       -0.847596   -1.437305    0.653873
     19          1           0       -0.211328   -0.548732   -1.428363
     20          1           0        1.682649    0.996700   -1.846796
     21          1           0        0.151636    1.703944   -1.378961
     22          1           0        2.521985    1.443396    0.533037
     23          1           0        2.076202    2.868210   -0.398412
     24          1           0        0.984498    2.272561    0.840611
     25          1           0        3.256242   -0.408882   -0.876875
     26          1           0        2.761534   -0.773983    0.810875
     27          1           0        3.288571   -2.063705   -0.270927
     28          1           0        0.980847   -1.148883    1.960061
     29          1           0        0.864097    0.477076    2.015968
 ---------------------------------------------------------------------
 Rotational constants (GHZ):           1.7663388           0.7870425           0.7405033
 Standard basis: 6-31G(d) (6D, 7F)
 There are   188 symmetry adapted cartesian basis functions of A   symmetry.
 There are   188 symmetry adapted basis functions of A   symmetry.
   188 basis functions,   356 primitive gaussians,   188 cartesian basis functions
    41 alpha electrons       41 beta electrons
       nuclear repulsion energy       607.1898627685 Hartrees.
 NAtoms=   29 NActive=   29 NUniq=   29 SFac= 1.00D+00 NAtFMM=   60 NAOKFM=F Big=F
 Integral buffers will be    131072 words long.
 Raffenetti 2 integral format.
 Two-electron integral symmetry is turned on.
 Nuclear repulsion after empirical dispersion term =      607.1428647172 Hartrees.
 One-electron integrals computed using PRISM.
 NBasis=   188 RedAO= T EigKep=  3.18D-03  NBF=   188
 NBsUse=   188 1.00D-06 EigRej= -1.00D+00 NBFU=   188
 ExpMin= 1.61D-01 ExpMax= 5.48D+03 ExpMxC= 8.25D+02 IAcc=3 IRadAn=         5 AccDes= 0.00D+00
 Harris functional with IExCor=  402 and IRadAn=       5 diagonalized for initial guess.
 HarFok:  IExCor=  402 AccDes= 0.00D+00 IRadAn=         5 IDoV= 1 UseB2=F ITyADJ=14
 ICtDFT=  3500011 ScaDFX=  1.000000  1.000000  1.000000  1.000000
 FoFCou: FMM=F IPFlag=           0 FMFlag=      100000 FMFlg1=           0
         NFxFlg=           0 DoJE=T BraDBF=F KetDBF=T FulRan=T
         wScrn=  0.000000 ICntrl=       500 IOpCl=  0 I1Cent=   200000004 NGrid=           0
         NMat0=    1 NMatS0=      1 NMatT0=    0 NMatD0=    1 NMtDS0=    0 NMtDT0=    0
 Petite list used in FoFCou.
 Keep R1 ints in memory in canonical form, NReq=161894728.
 Requested convergence on RMS density matrix=1.00D-08 within  32 cycles.
 Requested convergence on MAX density matrix=1.00D-06.
 Requested convergence on             energy=1.00D-06.
 No special actions if energy rises.
 Integral accuracy reduced to 1.0D-05 until final iterations.
 Initial convergence to 1.0D-05 achieved.  Increase integral accuracy.
 SCF Done:  E(RB3LYP) =  -446.284241067     A.U. after   13 cycles
            NFock= 13  Conv=0.41D-08     -V/T= 2.0096
 QCSCF skips out because SCF is already converged.

 **********************************************************************

            Population analysis using the SCF density.

 **********************************************************************

 Orbital symmetries:
       Occupied  (A) (A) (A) (A) (A) (A) (A) (A) (A) (A) (A) (A)
                 (A) (A) (A) (A) (A) (A) (A) (A) (A) (A) (A) (A)
                 (A) (A) (A) (A) (A) (A) (A) (A) (A) (A) (A) (A)
                 (A) (A) (A) (A) (A)
       Virtual   (A) (A) (A) (A) (A) (A) (A) (A) (A) (A) (A) (A)
                 (A) (A) (A) (A) (A) (A) (A) (A) (A) (A) (A) (A)
                 (A) (A) (A) (A) (A) (A) (A) (A) (A) (A) (A) (A)
                 (A) (A) (A) (A) (A) (A) (A) (A) (A) (A) (A) (A)
                 (A) (A) (A) (A) (A) (A) (A) (A) (A) (A) (A) (A)
                 (A) (A) (A) (A) (A) (A) (A) (A) (A) (A) (A) (A)
                 (A) (A) (A) (A) (A) (A) (A) (A) (A) (A) (A) (A)
                 (A) (A) (A) (A) (A) (A) (A) (A) (A) (A) (A) (A)
                 (A) (A) (A) (A) (A) (A) (A) (A) (A) (A) (A) (A)
                 (A) (A) (A) (A) (A) (A) (A) (A) (A) (A) (A) (A)
                 (A) (A) (A) (A) (A) (A) (A) (A) (A) (A) (A) (A)
                 (A) (A) (A) (A) (A) (A) (A) (A) (A) (A) (A) (A)
                 (A) (A) (A)
 The electronic state is 1-A.
 Alpha  occ. eigenvalues --  -19.14022 -14.30373 -10.22823 -10.22400 -10.20500
 Alpha  occ. eigenvalues --  -10.18814 -10.18011 -10.17707 -10.17370 -10.16887
 Alpha  occ. eigenvalues --   -1.01846  -0.87604  -0.78983  -0.77615  -0.72676
 Alpha  occ. eigenvalues --   -0.69270  -0.65058  -0.62595  -0.58166  -0.54477
 Alpha  occ. eigenvalues --   -0.50032  -0.48364  -0.47005  -0.45257  -0.44586
 Alpha  occ. eigenvalues --   -0.43837  -0.42357  -0.41493  -0.40737  -0.39077
 Alpha  occ. eigenvalues --   -0.38270  -0.37142  -0.36145  -0.35187  -0.33902
 Alpha  occ. eigenvalues --   -0.32670  -0.32126  -0.31324  -0.28979  -0.26159
 Alpha  occ. eigenvalues --   -0.21679
 Alpha virt. eigenvalues --    0.06584   0.08278   0.10382   0.11152   0.11829
 Alpha virt. eigenvalues --    0.13451   0.13540   0.14276   0.14954   0.15639
 Alpha virt. eigenvalues --    0.16606   0.17369   0.17881   0.18586   0.19592
 Alpha virt. eigenvalues --    0.19896   0.20944   0.21963   0.22315   0.23426
 Alpha virt. eigenvalues --    0.24180   0.25552   0.26115   0.26676   0.26859
 Alpha virt. eigenvalues --    0.28831   0.31281   0.34290   0.48815   0.50871
 Alpha virt. eigenvalues --    0.51860   0.53510   0.54772   0.55352   0.56372
 Alpha virt. eigenvalues --    0.57171   0.58306   0.61769   0.61918   0.62287
 Alpha virt. eigenvalues --    0.65787   0.67708   0.69182   0.70727   0.71453
 Alpha virt. eigenvalues --    0.72928   0.74960   0.75503   0.78308   0.80192
 Alpha virt. eigenvalues --    0.81584   0.84821   0.85942   0.86511   0.86718
 Alpha virt. eigenvalues --    0.87810   0.88876   0.89856   0.91009   0.91492
 Alpha virt. eigenvalues --    0.92518   0.93933   0.94266   0.94934   0.96915
 Alpha virt. eigenvalues --    0.98360   0.98500   1.00014   1.01004   1.02029
 Alpha virt. eigenvalues --    1.03706   1.03866   1.07136   1.08463   1.10576
 Alpha virt. eigenvalues --    1.12767   1.15904   1.17314   1.22901   1.28136
 Alpha virt. eigenvalues --    1.29903   1.39113   1.41113   1.45192   1.49517
 Alpha virt. eigenvalues --    1.50783   1.54144   1.57449   1.60319   1.62770
 Alpha virt. eigenvalues --    1.67147   1.68925   1.70390   1.72964   1.76893
 Alpha virt. eigenvalues --    1.79663   1.80708   1.84485   1.88486   1.91751
 Alpha virt. eigenvalues --    1.94847   1.97180   1.97831   2.00440   2.01390
 Alpha virt. eigenvalues --    2.03430   2.04494   2.07138   2.11323   2.12286
 Alpha virt. eigenvalues --    2.14595   2.16033   2.19273   2.21801   2.24773
 Alpha virt. eigenvalues --    2.26955   2.27685   2.30400   2.33255   2.34620
 Alpha virt. eigenvalues --    2.35860   2.37654   2.38278   2.42532   2.44381
 Alpha virt. eigenvalues --    2.45747   2.50655   2.52079   2.58152   2.60103
 Alpha virt. eigenvalues --    2.65851   2.66952   2.76275   2.77113   2.84374
 Alpha virt. eigenvalues --    2.89281   2.98918   3.83511   3.98022   4.14824
 Alpha virt. eigenvalues --    4.18559   4.25514   4.34101   4.40780   4.48661
 Alpha virt. eigenvalues --    4.53712   4.63086
          Condensed to atoms (all electrons):
               1          2          3          4          5          6
     1  C    5.072228   0.377411  -0.050041  -0.003478  -0.002643   0.000225
     2  C    0.377411   4.991910   0.360004  -0.040213   0.005037  -0.003264
     3  C   -0.050041   0.360004   5.102035   0.334843  -0.048653   0.001653
     4  C   -0.003478  -0.040213   0.334843   4.953154   0.337274  -0.043670
     5  C   -0.002643   0.005037  -0.048653   0.337274   4.858931   0.351278
     6  C    0.000225  -0.003264   0.001653  -0.043670   0.351278   5.090753
     7  C   -0.000008   0.000155  -0.002754  -0.005189  -0.038374   0.352007
     8  O    0.000006  -0.000000   0.003035  -0.046838   0.246641  -0.038025
     9  C   -0.000001   0.000004  -0.000058  -0.004398  -0.038336  -0.007552
    10  N   -0.000004   0.003963  -0.055011   0.323258  -0.056237  -0.008383
    11  H    0.379358  -0.035675  -0.005358   0.002594   0.000014  -0.000000
    12  H    0.372547  -0.030503   0.004826   0.000143   0.000013  -0.000001
    13  H    0.378114  -0.037032  -0.003553  -0.001060   0.000123  -0.000006
    14  H   -0.041488   0.372262  -0.036609  -0.007847   0.002555  -0.001172
    15  H   -0.041108   0.375170  -0.032871   0.004651   0.000001   0.000048
    16  H    0.005515  -0.035403   0.361612  -0.035291  -0.009251   0.004442
    17  H   -0.006380  -0.035874   0.360539  -0.025764   0.004880  -0.000097
    18  H    0.005279  -0.007397  -0.039410   0.376398  -0.047481   0.005685
    19  H    0.000147   0.001260   0.000455  -0.050740   0.358894  -0.048189
    20  H   -0.000002   0.000059  -0.000098   0.005024  -0.032125   0.372165
    21  H   -0.000023   0.000206   0.001053  -0.001503  -0.024366   0.364241
    22  H    0.000000  -0.000005   0.000134  -0.000131  -0.003462  -0.036877
    23  H    0.000000  -0.000006   0.000022   0.000011   0.003907  -0.030006
    24  H    0.000001  -0.000008  -0.000099   0.002735  -0.004631  -0.033608
    25  H   -0.000000  -0.000001   0.000039  -0.000397  -0.009438   0.006912
    26  H    0.000000  -0.000003  -0.000205   0.003759  -0.001658  -0.000853
    27  H    0.000000  -0.000000   0.000003  -0.000131   0.005030  -0.000148
    28  H    0.000006  -0.000216   0.007571  -0.038140  -0.003141   0.000120
    29  H    0.000007  -0.000180  -0.005943  -0.039265  -0.002987   0.000537
               7          8          9         10         11         12
     1  C   -0.000008   0.000006  -0.000001  -0.000004   0.379358   0.372547
     2  C    0.000155  -0.000000   0.000004   0.003963  -0.035675  -0.030503
     3  C   -0.002754   0.003035  -0.000058  -0.055011  -0.005358   0.004826
     4  C   -0.005189  -0.046838  -0.004398   0.323258   0.002594   0.000143
     5  C   -0.038374   0.246641  -0.038336  -0.056237   0.000014   0.000013
     6  C    0.352007  -0.038025  -0.007552  -0.008383  -0.000000  -0.000001
     7  C    5.123265  -0.000461  -0.002264   0.003571   0.000001   0.000000
     8  O   -0.000461   8.221842   0.258086  -0.001320  -0.000040   0.000000
     9  C   -0.002264   0.258086   4.896327  -0.003448   0.000001   0.000000
    10  N    0.003571  -0.001320  -0.003448   6.943353  -0.000007  -0.000001
    11  H    0.000001  -0.000040   0.000001  -0.000007   0.565773  -0.030546
    12  H    0.000000   0.000000   0.000000  -0.000001  -0.030546   0.579928
    13  H    0.000000  -0.000000   0.000000  -0.000038  -0.031329  -0.030544
    14  H    0.000030  -0.000010   0.000002  -0.000003  -0.005466  -0.002119
    15  H    0.000000  -0.000000   0.000000  -0.000087   0.005477  -0.004395
    16  H   -0.001681  -0.000013   0.000005  -0.002832  -0.000047  -0.000177
    17  H    0.000011  -0.000050  -0.000001   0.003092  -0.000262  -0.000031
    18  H   -0.000114   0.002186  -0.000406  -0.048532   0.001776  -0.000094
    19  H    0.006671  -0.044940   0.006708   0.005916   0.002430  -0.000051
    20  H   -0.047037   0.000430  -0.001467  -0.000220  -0.000001  -0.000000
    21  H   -0.042120   0.002831   0.000150  -0.000077  -0.000013   0.000000
    22  H    0.376602   0.000476   0.002594  -0.001266  -0.000000  -0.000000
    23  H    0.367630  -0.000051  -0.000085   0.000224  -0.000000  -0.000000
    24  H    0.373980  -0.000055   0.000096  -0.002744  -0.000000  -0.000000
    25  H   -0.001078  -0.041571   0.367274   0.000303   0.000000  -0.000000
    26  H   -0.002851  -0.044156   0.343945   0.006075  -0.000000  -0.000000
    27  H    0.000262  -0.034217   0.382164   0.000102  -0.000000   0.000000
    28  H    0.000118   0.007394  -0.000405   0.311919   0.000012  -0.000000
    29  H    0.005678  -0.000316  -0.000782   0.309833  -0.000000   0.000000
              13         14         15         16         17         18
     1  C    0.378114  -0.041488  -0.041108   0.005515  -0.006380   0.005279
     2  C   -0.037032   0.372262   0.375170  -0.035403  -0.035874  -0.007397
     3  C   -0.003553  -0.036609  -0.032871   0.361612   0.360539  -0.039410
     4  C   -0.001060  -0.007847   0.004651  -0.035291  -0.025764   0.376398
     5  C    0.000123   0.002555   0.000001  -0.009251   0.004880  -0.047481
     6  C   -0.000006  -0.001172   0.000048   0.004442  -0.000097   0.005685
     7  C    0.000000   0.000030   0.000000  -0.001681   0.000011  -0.000114
     8  O   -0.000000  -0.000010  -0.000000  -0.000013  -0.000050   0.002186
     9  C    0.000000   0.000002   0.000000   0.000005  -0.000001  -0.000406
    10  N   -0.000038  -0.000003  -0.000087  -0.002832   0.003092  -0.048532
    11  H   -0.031329  -0.005466   0.005477  -0.000047  -0.000262   0.001776
    12  H   -0.030544  -0.002119  -0.004395  -0.000177  -0.000031  -0.000094
    13  H    0.572752   0.005520  -0.003829   0.000019   0.005309   0.000381
    14  H    0.005520   0.609721  -0.037420  -0.003689   0.005640  -0.000066
    15  H   -0.003829  -0.037420   0.610624  -0.003577  -0.004642  -0.000028
    16  H    0.000019  -0.003689  -0.003577   0.616936  -0.036154   0.005689
    17  H    0.005309   0.005640  -0.004642  -0.036154   0.586948  -0.005162
    18  H    0.000381  -0.000066  -0.000028   0.005689  -0.005162   0.614402
    19  H   -0.000011   0.002124   0.000045   0.000005  -0.000301  -0.005992
    20  H    0.000000  -0.000032  -0.000000  -0.000028   0.000002  -0.000143
    21  H    0.000002   0.004712  -0.000075  -0.000075   0.000056  -0.000113
    22  H   -0.000000   0.000002   0.000000  -0.000044   0.000000  -0.000014
    23  H   -0.000000   0.000000  -0.000000   0.000030  -0.000001   0.000005
    24  H    0.000000  -0.000017  -0.000005   0.005508  -0.000016  -0.000014
    25  H    0.000000   0.000000   0.000000  -0.000001  -0.000000   0.000030
    26  H    0.000000   0.000000  -0.000000  -0.000008   0.000007   0.000176
    27  H   -0.000000  -0.000000  -0.000000   0.000000  -0.000000  -0.000016
    28  H    0.000001   0.000001   0.000004  -0.000079  -0.000136  -0.005879
    29  H    0.000000   0.000008  -0.000001   0.003186  -0.000197   0.007048
              19         20         21         22         23         24
     1  C    0.000147  -0.000002  -0.000023   0.000000   0.000000   0.000001
     2  C    0.001260   0.000059   0.000206  -0.000005  -0.000006  -0.000008
     3  C    0.000455  -0.000098   0.001053   0.000134   0.000022  -0.000099
     4  C   -0.050740   0.005024  -0.001503  -0.000131   0.000011   0.002735
     5  C    0.358894  -0.032125  -0.024366  -0.003462   0.003907  -0.004631
     6  C   -0.048189   0.372165   0.364241  -0.036877  -0.030006  -0.033608
     7  C    0.006671  -0.047037  -0.042120   0.376602   0.367630   0.373980
     8  O   -0.044940   0.000430   0.002831   0.000476  -0.000051  -0.000055
     9  C    0.006708  -0.001467   0.000150   0.002594  -0.000085   0.000096
    10  N    0.005916  -0.000220  -0.000077  -0.001266   0.000224  -0.002744
    11  H    0.002430  -0.000001  -0.000013  -0.000000  -0.000000  -0.000000
    12  H   -0.000051  -0.000000   0.000000  -0.000000  -0.000000  -0.000000
    13  H   -0.000011   0.000000   0.000002  -0.000000  -0.000000   0.000000
    14  H    0.002124  -0.000032   0.004712   0.000002   0.000000  -0.000017
    15  H    0.000045  -0.000000  -0.000075   0.000000  -0.000000  -0.000005
    16  H    0.000005  -0.000028  -0.000075  -0.000044   0.000030   0.005508
    17  H   -0.000301   0.000002   0.000056   0.000000  -0.000001  -0.000016
    18  H   -0.005992  -0.000143  -0.000113  -0.000014   0.000005  -0.000014
    19  H    0.649681  -0.004255  -0.007093  -0.000079  -0.000151  -0.000011
    20  H   -0.004255   0.592687  -0.032031  -0.003261  -0.005232   0.005406
    21  H   -0.007093  -0.032031   0.590188   0.005381  -0.002922  -0.006430
    22  H   -0.000079  -0.003261   0.005381   0.570087  -0.029433  -0.034252
    23  H   -0.000151  -0.005232  -0.002922  -0.029433   0.579450  -0.029767
    24  H   -0.000011   0.005406  -0.006430  -0.034252  -0.029767   0.566439
    25  H    0.000460   0.000084  -0.000239  -0.000188   0.000292   0.000125
    26  H   -0.000433   0.000799  -0.000007   0.003453   0.000122  -0.000063
    27  H   -0.000190  -0.000136   0.000004   0.000038  -0.000006  -0.000008
    28  H    0.000146  -0.000002  -0.000022  -0.000151  -0.000003   0.000077
    29  H   -0.000124  -0.000016   0.000035   0.001477  -0.000004   0.004416
              25         26         27         28         29
     1  C   -0.000000   0.000000   0.000000   0.000006   0.000007
     2  C   -0.000001  -0.000003  -0.000000  -0.000216  -0.000180
     3  C    0.000039  -0.000205   0.000003   0.007571  -0.005943
     4  C   -0.000397   0.003759  -0.000131  -0.038140  -0.039265
     5  C   -0.009438  -0.001658   0.005030  -0.003141  -0.002987
     6  C    0.006912  -0.000853  -0.000148   0.000120   0.000537
     7  C   -0.001078  -0.002851   0.000262   0.000118   0.005678
     8  O   -0.041571  -0.044156  -0.034217   0.007394  -0.000316
     9  C    0.367274   0.343945   0.382164  -0.000405  -0.000782
    10  N    0.000303   0.006075   0.000102   0.311919   0.309833
    11  H    0.000000  -0.000000  -0.000000   0.000012  -0.000000
    12  H   -0.000000  -0.000000   0.000000  -0.000000   0.000000
    13  H    0.000000   0.000000  -0.000000   0.000001   0.000000
    14  H    0.000000   0.000000  -0.000000   0.000001   0.000008
    15  H    0.000000  -0.000000  -0.000000   0.000004  -0.000001
    16  H   -0.000001  -0.000008   0.000000  -0.000079   0.003186
    17  H   -0.000000   0.000007  -0.000000  -0.000136  -0.000197
    18  H    0.000030   0.000176  -0.000016  -0.005879   0.007048
    19  H    0.000460  -0.000433  -0.000190   0.000146  -0.000124
    20  H    0.000084   0.000799  -0.000136  -0.000002  -0.000016
    21  H   -0.000239  -0.000007   0.000004  -0.000022   0.000035
    22  H   -0.000188   0.003453   0.000038  -0.000151   0.001477
    23  H    0.000292   0.000122  -0.000006  -0.000003  -0.000004
    24  H    0.000125  -0.000063  -0.000008   0.000077   0.004416
    25  H    0.631515  -0.052725  -0.037398   0.000358  -0.000060
    26  H   -0.052725   0.659724  -0.035849   0.001384   0.002238
    27  H   -0.037398  -0.035849   0.565332   0.000068   0.000018
    28  H    0.000358   0.001384   0.000068   0.451309  -0.036633
    29  H   -0.000060   0.002238   0.000018  -0.036633   0.455302
 Mulliken charges:
               1
     1  C   -0.445669
     2  C   -0.261661
     3  C   -0.257160
     4  C    0.000211
     5  C    0.148205
     6  C   -0.298216
     7  C   -0.466050
     8  O   -0.490861
     9  C   -0.198154
    10  N   -0.731400
    11  H    0.151310
    12  H    0.141006
    13  H    0.145181
    14  H    0.133357
    15  H    0.132018
    16  H    0.125405
    17  H    0.148585
    18  H    0.141806
    19  H    0.127616
    20  H    0.149430
    21  H    0.148250
    22  H    0.148918
    23  H    0.145974
    24  H    0.152946
    25  H    0.135703
    26  H    0.117127
    27  H    0.155078
    28  H    0.304319
    29  H    0.296724
 Sum of Mulliken charges =  -0.00000
 Mulliken charges with hydrogens summed into heavy atoms:
               1
     1  C   -0.008172
     2  C    0.003715
     3  C    0.016830
     4  C    0.142016
     5  C    0.275822
     6  C   -0.000537
     7  C   -0.018212
     8  O   -0.490861
     9  C    0.209755
    10  N   -0.130357
 Electronic spatial extent (au):  <R**2>=           1883.4720
 Charge=              0.0000 electrons
 Dipole moment (field-independent basis, Debye):
    X=              1.0985    Y=              1.3335    Z=             -0.6343  Tot=              1.8405
 Quadrupole moment (field-independent basis, Debye-Ang):
   XX=            -60.2379   YY=            -66.0411   ZZ=            -69.9624
   XY=             -0.1584   XZ=              2.5101   YZ=             -1.2842
 Traceless Quadrupole moment (field-independent basis, Debye-Ang):
   XX=              5.1759   YY=             -0.6273   ZZ=             -4.5486
   XY=             -0.1584   XZ=              2.5101   YZ=             -1.2842
 Octapole moment (field-independent basis, Debye-Ang**2):
  XXX=             20.0037  YYY=             -3.9229  ZZZ=            -13.5707  XYY=              4.1458
  XXY=             -5.9794  XXZ=              3.5123  XZZ=              6.7660  YZZ=              1.9046
  YYZ=              4.2848  XYZ=             -3.5178
 Hexadecapole moment (field-independent basis, Debye-Ang**3):
 XXXX=          -1533.2135 YYYY=           -538.4606 ZZZZ=           -456.9079 XXXY=            -36.3687
 XXXZ=             -8.3466 YYYX=            -13.5359 YYYZ=             -7.2746 ZZZX=             10.3915
 ZZZY=              7.2706 XXYY=           -346.6520 XXZZ=           -321.3907 YYZZ=           -157.5105
 XXYZ=             -5.2625 YYXZ=              1.2492 ZZXY=             -1.9232
 N-N= 6.071428647172D+02 E-N=-2.249987436001D+03  KE= 4.420354960520D+02
 Calling FoFJK, ICntrl=      2127 FMM=F ISym2X=0 I1Cent= 0 IOpClX= 0 NMat=1 NMatS=1 NMatT=0.
 ***** Axes restored to original set *****
 -------------------------------------------------------------------
 Center     Atomic                   Forces (Hartrees/Bohr)
 Number     Number              X              Y              Z
 -------------------------------------------------------------------
      1        6          -0.002433343   -0.001362099   -0.003891825
      2        6           0.001246539   -0.001032727    0.002237584
      3        6          -0.003874788   -0.003226838   -0.001483685
      4        6           0.001336243    0.002437571    0.011480141
      5        6          -0.002940288   -0.010550803   -0.016417690
      6        6           0.003962938    0.002769677    0.001555222
      7        6          -0.000238100   -0.001019547    0.007162700
      8        8           0.004765213    0.001043152    0.001981336
      9        6          -0.000459953   -0.001378076   -0.004831145
     10        7           0.000687074    0.004828714   -0.003132566
     11        1           0.000816020    0.001437180   -0.001230849
     12        1           0.000415564    0.000398289   -0.002014099
     13        1           0.001078685    0.001011724   -0.000593866
     14        1          -0.002179712   -0.000565982    0.000560235
     15        1          -0.000697247   -0.000778860    0.001463639
     16        1          -0.000564266    0.001613009    0.002426124
     17        1          -0.001698692    0.005083894    0.000965972
     18        1          -0.004070396   -0.000763457   -0.000434459
     19        1          -0.000278963    0.000156357   -0.000957091
     20        1           0.000451025    0.000531505   -0.004281065
     21        1           0.000363797    0.000986873   -0.003796329
     22        1           0.000841288    0.001178408    0.001086569
     23        1           0.000165231   -0.000094168    0.001144477
     24        1           0.001821676    0.000328833    0.000795051
     25        1          -0.001164297   -0.000249636    0.005709410
     26        1           0.000815698    0.000323250    0.005397439
     27        1           0.000392328   -0.001018715   -0.003670421
     28        1           0.001495367   -0.001223214    0.001581449
     29        1          -0.000054642   -0.000864314    0.001187740
 -------------------------------------------------------------------
 Cartesian Forces:  Max     0.016417690 RMS     0.003319716

 GradGradGradGradGradGradGradGradGradGradGradGradGradGradGradGradGradGrad
 Berny optimization.
 FormGI is forming the generalized inverse of G from B-inverse, IUseBI=4.
 Internal  Forces:  Max     0.010456425 RMS     0.002418081
 Search for a local minimum.
 Step number   1 out of a maximum of  156
 All quantities printed in internal units (Hartrees-Bohrs-Radians)
 Mixed Optimization -- RFO/linear search
 Second derivative matrix not updated -- first step.
 ITU=  0
     Eigenvalues ---    0.00230   0.00230   0.00230   0.00324   0.00475
     Eigenvalues ---    0.00490   0.00725   0.01155   0.01504   0.02710
     Eigenvalues ---    0.03001   0.03159   0.03285   0.03449   0.04419
     Eigenvalues ---    0.04544   0.04686   0.04701   0.04711   0.04850
     Eigenvalues ---    0.05300   0.05533   0.05718   0.05750   0.06299
     Eigenvalues ---    0.08048   0.08529   0.08837   0.09310   0.09958
     Eigenvalues ---    0.10550   0.12349   0.12568   0.12880   0.16000
     Eigenvalues ---    0.16000   0.16000   0.16000   0.16000   0.16000
     Eigenvalues ---    0.16000   0.16000   0.16000   0.16000   0.16000
     Eigenvalues ---    0.17564   0.18855   0.19729   0.21591   0.21917
     Eigenvalues ---    0.21944   0.22008   0.25000   0.26495   0.28048
     Eigenvalues ---    0.28343   0.29112   0.30174   0.30284   0.33789
     Eigenvalues ---    0.33859   0.33974   0.34006   0.34013   0.34018
     Eigenvalues ---    0.34105   0.34159   0.34263   0.34287   0.34296
     Eigenvalues ---    0.34350   0.34378   0.34472   0.34514   0.34713
     Eigenvalues ---    0.34720   0.35377   0.39505   0.43343   0.44362
     Eigenvalues ---    0.45095
 RFO step:  Lambda=-5.98317665D-03 EMin= 2.30000000D-03
 Linear search not attempted -- first point.
 Iteration  1 RMS(Cart)=  0.04865985 RMS(Int)=  0.00070086
 Iteration  2 RMS(Cart)=  0.00165328 RMS(Int)=  0.00040136
 Iteration  3 RMS(Cart)=  0.00000099 RMS(Int)=  0.00040136
 Variable       Old X    -DE/DX   Delta X   Delta X   Delta X     New X
                                 (Linear)    (Quad)   (Total)
    R1        2.87402   0.00760   0.00000   0.02462   0.02462   2.89864
    R2        2.06697   0.00118   0.00000   0.00337   0.00337   2.07034
    R3        2.06889   0.00087   0.00000   0.00251   0.00251   2.07139
    R4        2.06833   0.00125   0.00000   0.00359   0.00359   2.07192
    R5        2.89769   0.00358   0.00000   0.01204   0.01204   2.90973
    R6        2.06849   0.00226   0.00000   0.00648   0.00648   2.07497
    R7        2.07300   0.00070   0.00000   0.00203   0.00203   2.07503
    R8        2.91396  -0.00508   0.00000  -0.01755  -0.01755   2.89641
    R9        2.07153   0.00171   0.00000   0.00493   0.00493   2.07646
   R10        2.07687  -0.00180   0.00000  -0.00524  -0.00524   2.07164
   R11        2.95553  -0.00955   0.00000  -0.03526  -0.03526   2.92026
   R12        2.78367   0.00235   0.00000   0.00653   0.00653   2.79019
   R13        2.07373  -0.00106   0.00000  -0.00308  -0.00308   2.07065
   R14        2.92033  -0.00316   0.00000  -0.01102  -0.01102   2.90930
   R15        2.72231  -0.00321   0.00000  -0.00800  -0.00800   2.71431
   R16        2.07568   0.00081   0.00000   0.00235   0.00235   2.07804
   R17        2.87619   0.01046   0.00000   0.03398   0.03398   2.91017
   R18        2.07309  -0.00008   0.00000  -0.00024  -0.00024   2.07285
   R19        2.07320  -0.00029   0.00000  -0.00083  -0.00083   2.07238
   R20        2.06132   0.00149   0.00000   0.00421   0.00421   2.06552
   R21        2.07063   0.00065   0.00000   0.00187   0.00187   2.07250
   R22        2.06471   0.00158   0.00000   0.00451   0.00451   2.06922
   R23        2.67248   0.00069   0.00000   0.00157   0.00157   2.67405
   R24        2.06540   0.00379   0.00000   0.01080   0.01080   2.07620
   R25        2.06143   0.00406   0.00000   0.01148   0.01148   2.07292
   R26        2.06744   0.00033   0.00000   0.00093   0.00093   2.06837
   R27        1.92723  -0.00176   0.00000  -0.00391  -0.00391   1.92332
   R28        1.91866   0.00128   0.00000   0.00281   0.00281   1.92147
    A1        1.94703   0.00130   0.00000   0.00682   0.00674   1.95378
    A2        1.92039   0.00259   0.00000   0.01902   0.01893   1.93932
    A3        1.93851  -0.00000   0.00000  -0.00241  -0.00241   1.93610
    A4        1.87697  -0.00146   0.00000  -0.00425  -0.00440   1.87258
    A5        1.89382  -0.00149   0.00000  -0.01520  -0.01519   1.87863
    A6        1.88495  -0.00112   0.00000  -0.00479  -0.00481   1.88014
    A7        1.98300   0.00132   0.00000   0.00788   0.00784   1.99085
    A8        1.91078  -0.00048   0.00000  -0.00350  -0.00346   1.90731
    A9        1.89107   0.00079   0.00000   0.01346   0.01343   1.90450
   A10        1.93357  -0.00058   0.00000  -0.00728  -0.00729   1.92629
   A11        1.88666  -0.00090   0.00000  -0.00296  -0.00309   1.88357
   A12        1.85361  -0.00022   0.00000  -0.00814  -0.00816   1.84545
   A13        2.02035   0.00026   0.00000   0.00060   0.00073   2.02108
   A14        1.88688   0.00108   0.00000   0.01796   0.01785   1.90473
   A15        1.88015   0.00329   0.00000   0.02924   0.02910   1.90925
   A16        1.92291  -0.00109   0.00000  -0.01243  -0.01253   1.91038
   A17        1.90009  -0.00390   0.00000  -0.03981  -0.03983   1.86026
   A18        1.84511   0.00050   0.00000   0.00607   0.00522   1.85034
   A19        2.00016  -0.00620   0.00000  -0.03349  -0.03418   1.96598
   A20        1.88610   0.00160   0.00000   0.01981   0.02001   1.90611
   A21        1.88337   0.00234   0.00000   0.00421   0.00299   1.88636
   A22        2.00449   0.00497   0.00000   0.03469   0.03511   2.03959
   A23        1.85933  -0.00152   0.00000  -0.03616  -0.03663   1.82270
   A24        1.81776  -0.00084   0.00000   0.01233   0.01262   1.83038
   A25        2.07820  -0.00390   0.00000  -0.03338  -0.03482   2.04338
   A26        1.93210  -0.00078   0.00000  -0.02655  -0.02842   1.90368
   A27        1.81830   0.00192   0.00000   0.03331   0.03409   1.85239
   A28        2.01666   0.00200   0.00000  -0.01131  -0.01371   2.00295
   A29        1.80661   0.00141   0.00000   0.03466   0.03518   1.84179
   A30        1.76388   0.00047   0.00000   0.03025   0.03065   1.79452
   A31        2.06763   0.00495   0.00000   0.02451   0.02462   2.09225
   A32        1.89629  -0.00421   0.00000  -0.03114  -0.03171   1.86458
   A33        1.89076  -0.00411   0.00000  -0.03442  -0.03484   1.85591
   A34        1.88790   0.00136   0.00000   0.02491   0.02510   1.91300
   A35        1.86249   0.00106   0.00000   0.01937   0.01964   1.88213
   A36        1.84681   0.00066   0.00000  -0.00553  -0.00667   1.84014
   A37        1.97101   0.00076   0.00000   0.00336   0.00334   1.97435
   A38        1.90916   0.00120   0.00000   0.00947   0.00944   1.91860
   A39        1.94995   0.00066   0.00000   0.00290   0.00288   1.95283
   A40        1.87058  -0.00081   0.00000  -0.00296  -0.00299   1.86759
   A41        1.89635  -0.00129   0.00000  -0.01162  -0.01161   1.88474
   A42        1.86198  -0.00066   0.00000  -0.00168  -0.00171   1.86027
   A43        2.06795   0.00150   0.00000   0.00584   0.00584   2.07379
   A44        1.93678   0.00471   0.00000   0.02866   0.02866   1.96544
   A45        1.95638   0.00382   0.00000   0.02265   0.02263   1.97901
   A46        1.88177  -0.00652   0.00000  -0.03920  -0.03900   1.84277
   A47        1.93168  -0.00495   0.00000  -0.03002  -0.03019   1.90149
   A48        1.87449   0.00137   0.00000   0.00909   0.00932   1.88381
   A49        1.87921   0.00131   0.00000   0.00732   0.00749   1.88670
   A50        1.88469   0.00313   0.00000   0.02193   0.02188   1.90657
   A51        1.93368  -0.00061   0.00000  -0.00079  -0.00084   1.93284
   A52        1.85947  -0.00057   0.00000   0.00292   0.00281   1.86228
    D1       -1.17132   0.00077   0.00000   0.01997   0.02004  -1.15128
    D2        1.00050   0.00060   0.00000   0.01345   0.01349   1.01400
    D3        3.01489   0.00051   0.00000   0.00929   0.00929   3.02417
    D4        3.03015   0.00006   0.00000   0.00842   0.00842   3.03858
    D5       -1.08120  -0.00012   0.00000   0.00190   0.00188  -1.07933
    D6        0.93318  -0.00020   0.00000  -0.00225  -0.00233   0.93085
    D7        0.94393  -0.00024   0.00000   0.00358   0.00361   0.94753
    D8        3.11575  -0.00041   0.00000  -0.00294  -0.00294   3.11282
    D9       -1.15305  -0.00049   0.00000  -0.00709  -0.00714  -1.16019
   D10        1.05192  -0.00114   0.00000  -0.02178  -0.02182   1.03010
   D11       -3.06524  -0.00152   0.00000  -0.02337  -0.02350  -3.08874
   D12       -1.07884   0.00123   0.00000   0.00713   0.00730  -1.07154
   D13       -1.10756  -0.00104   0.00000  -0.01737  -0.01740  -1.12495
   D14        1.05847  -0.00142   0.00000  -0.01896  -0.01907   1.03940
   D15        3.04487   0.00133   0.00000   0.01154   0.01173   3.05660
   D16       -3.13180   0.00006   0.00000  -0.00187  -0.00193  -3.13373
   D17       -0.96578  -0.00031   0.00000  -0.00346  -0.00361  -0.96938
   D18        1.02063   0.00244   0.00000   0.02704   0.02719   1.04782
   D19        1.00728  -0.00275   0.00000  -0.04147  -0.04144   0.96584
   D20       -3.01647   0.00043   0.00000  -0.00401  -0.00422  -3.02069
   D21       -1.06059   0.00136   0.00000   0.02181   0.02188  -1.03870
   D22       -1.13989  -0.00351   0.00000  -0.05588  -0.05567  -1.19557
   D23        1.11954  -0.00033   0.00000  -0.01841  -0.01845   1.10108
   D24        3.07543   0.00059   0.00000   0.00740   0.00765   3.08307
   D25        3.12740  -0.00128   0.00000  -0.03358  -0.03362   3.09378
   D26       -0.89636   0.00190   0.00000   0.00388   0.00360  -0.89275
   D27        1.05953   0.00283   0.00000   0.02970   0.02970   1.08923
   D28        0.86325   0.00182   0.00000   0.03586   0.03487   0.89812
   D29       -3.01970  -0.00042   0.00000  -0.05438  -0.05433  -3.07403
   D30       -1.13680   0.00073   0.00000  -0.01432  -0.01484  -1.15163
   D31       -1.33599   0.00067   0.00000   0.00665   0.00609  -1.32990
   D32        1.06424  -0.00157   0.00000  -0.08359  -0.08311   0.98114
   D33        2.94714  -0.00042   0.00000  -0.04354  -0.04361   2.90353
   D34        2.94463   0.00000   0.00000  -0.00384  -0.00381   2.94083
   D35       -0.93832  -0.00224   0.00000  -0.09408  -0.09301  -1.03132
   D36        0.94458  -0.00109   0.00000  -0.05403  -0.05351   0.89107
   D37        2.96864   0.00178   0.00000   0.01175   0.01137   2.98001
   D38       -1.28435   0.00258   0.00000   0.02764   0.02732  -1.25703
   D39       -1.05754  -0.00130   0.00000   0.01106   0.01120  -1.04635
   D40        0.97265  -0.00051   0.00000   0.02695   0.02714   0.99980
   D41        0.96901  -0.00116   0.00000  -0.00732  -0.00716   0.96184
   D42        2.99921  -0.00036   0.00000   0.00857   0.00878   3.00799
   D43        0.86723  -0.00176   0.00000  -0.04723  -0.04697   0.82026
   D44        3.02921   0.00022   0.00000  -0.02152  -0.02172   3.00749
   D45       -1.25543  -0.00332   0.00000  -0.06212  -0.06143  -1.31686
   D46       -1.49877   0.00187   0.00000   0.05395   0.05381  -1.44496
   D47        0.66321   0.00385   0.00000   0.07966   0.07906   0.74227
   D48        2.66176   0.00031   0.00000   0.03906   0.03935   2.70110
   D49        2.87353  -0.00037   0.00000   0.00232   0.00224   2.87576
   D50       -1.24768   0.00162   0.00000   0.02804   0.02749  -1.22019
   D51        0.75087  -0.00193   0.00000  -0.01256  -0.01222   0.73865
   D52       -1.70736   0.00236   0.00000   0.04886   0.04872  -1.65864
   D53        0.72116  -0.00247   0.00000  -0.04776  -0.04770   0.67346
   D54        2.65733   0.00024   0.00000   0.00631   0.00639   2.66372
   D55        0.97076  -0.00007   0.00000   0.00928   0.00932   0.98008
   D56        3.05227   0.00021   0.00000   0.01416   0.01421   3.06647
   D57       -1.17330   0.00056   0.00000   0.01988   0.01994  -1.15336
   D58       -1.19536   0.00072   0.00000   0.01138   0.01126  -1.18410
   D59        0.88615   0.00100   0.00000   0.01626   0.01615   0.90230
   D60        2.94376   0.00134   0.00000   0.02198   0.02188   2.96565
   D61        3.10769  -0.00120   0.00000  -0.00340  -0.00335   3.10434
   D62       -1.09399  -0.00092   0.00000   0.00148   0.00154  -1.09245
   D63        0.96362  -0.00058   0.00000   0.00720   0.00727   0.97090
   D64       -1.18553   0.00069   0.00000   0.02620   0.02589  -1.15964
   D65        0.98409   0.00058   0.00000   0.02525   0.02552   1.00960
   D66        3.04935   0.00029   0.00000   0.02259   0.02264   3.07199
         Item               Value     Threshold  Converged?
 Maximum Force            0.010456     0.000450     NO 
 RMS     Force            0.002418     0.000300     NO 
 Maximum Displacement     0.168130     0.001800     NO 
 RMS     Displacement     0.049088     0.001200     NO 
 Predicted change in Energy=-3.198990D-03
 GradGradGradGradGradGradGradGradGradGradGradGradGradGradGradGradGradGrad

                          Input orientation:                          
 ---------------------------------------------------------------------
 Center     Atomic      Atomic             Coordinates (Angstroms)
 Number     Number       Type             X           Y           Z
 ---------------------------------------------------------------------
      1          6           0        0.916585    0.081852   -0.011823
      2          6           0        0.571291   -0.297462    1.433765
      3          6           0        1.119564    0.681791    2.487960
      4          6           0        0.649183    2.134680    2.357320
      5          6           0       -0.890793    2.263101    2.350482
      6          6           0       -1.656821    1.570795    3.492448
      7          6           0       -1.185473    1.744582    4.948199
      8          8           0       -1.246177    3.637940    2.134552
      9          6           0       -1.509541    4.458757    3.256720
     10          7           0        1.384158    2.972290    3.325975
     11          1           0        0.430463    1.014869   -0.317531
     12          1           0        0.595079   -0.697685   -0.712156
     13          1           0        1.997974    0.215103   -0.134157
     14          1           0       -0.517902   -0.395065    1.532709
     15          1           0        0.980527   -1.292772    1.651986
     16          1           0        0.873527    0.306197    3.490850
     17          1           0        2.214244    0.701094    2.432341
     18          1           0        0.958507    2.505122    1.373580
     19          1           0       -1.234088    1.774450    1.427119
     20          1           0       -2.705308    1.881148    3.405499
     21          1           0       -1.649900    0.498467    3.262845
     22          1           0       -1.124274    2.791146    5.257506
     23          1           0       -1.887243    1.249134    5.629996
     24          1           0       -0.206722    1.283971    5.118128
     25          1           0       -2.413198    4.152418    3.801382
     26          1           0       -0.670825    4.515088    3.961460
     27          1           0       -1.682756    5.461432    2.853426
     28          1           0        1.188073    3.953112    3.137806
     29          1           0        1.067767    2.787804    4.274523
 ---------------------------------------------------------------------
                    Distance matrix (angstroms):
                    1          2          3          4          5
     1  C    0.000000
     2  C    1.533894   0.000000
     3  C    2.578767   1.539761   0.000000
     4  C    3.146179   2.602755   1.532714   0.000000
     5  C    3.688488   3.087805   2.561440   1.545337   0.000000
     6  C    4.595572   3.562730   3.083446   2.631376   1.539537
     7  C    5.637831   4.428025   3.534897   3.198561   2.665302
     8  O    4.682971   4.391091   3.802689   2.429363   1.436352
     9  C    5.977186   5.502240   4.665689   3.297020   2.454592
    10  N    4.440062   3.864258   2.453297   1.476507   2.574867
    11  H    1.095579   2.192963   2.908020   2.908031   3.228327
    12  H    1.096135   2.183054   3.524029   4.176950   4.511521
    13  H    1.096414   2.180946   2.804443   3.422203   4.325818
    14  H    2.161199   1.098025   2.180234   2.905458   2.806002
    15  H    2.159152   1.098060   2.148739   3.514927   4.078476
    16  H    3.510114   2.165028   1.098814   2.163001   2.871017
    17  H    2.835721   2.166463   1.096263   2.123727   3.476755
    18  H    2.791654   2.829847   2.142969   1.095743   2.105426
    19  H    3.092060   2.748137   2.803385   2.131139   1.099650
    20  H    5.294682   4.401156   4.112174   3.523573   2.133404
    21  H    4.181371   2.985419   2.881663   2.963604   2.126636
    22  H    6.266674   5.199561   4.141808   3.462250   2.963804
    23  H    6.407348   5.103400   4.385790   4.234153   3.574388
    24  H    5.387328   4.084209   3.006566   3.013028   3.014384
    25  H    6.495960   5.857834   5.123547   3.941416   2.827074
    26  H    6.161203   5.576086   4.480052   3.159435   2.777604
    27  H    6.626168   6.345158   5.552615   4.092840   3.333089
    28  H    4.998051   4.620774   3.335946   2.050915   2.792437
    29  H    5.071271   4.223181   2.762206   2.068199   2.795211
                    6          7          8          9         10
     6  C    0.000000
     7  C    1.539994   0.000000
     8  O    2.507110   3.391917   0.000000
     9  C    2.901308   3.214477   1.415049   0.000000
    10  N    3.352530   3.277481   2.963316   3.253902   0.000000
    11  H    4.379698   5.556226   3.962869   5.329095   4.244546
    12  H    5.281643   6.416748   5.503782   6.838882   5.513426
    13  H    5.324255   6.189021   5.233294   6.466012   4.466695
    14  H    3.000387   4.085256   4.142189   5.245489   4.262948
    15  H    4.306149   4.978162   5.431666   6.469597   4.599555
    16  H    2.828758   2.903842   4.175309   4.793494   2.719555
    17  H    4.106745   4.356201   4.548435   5.354084   2.577976
    18  H    3.493209   4.237094   2.592872   3.667992   2.052138
    19  H    2.117963   3.521543   1.993289   3.260187   3.449013
    20  H    1.096906   2.169901   2.613559   2.845358   4.233279
    21  H    1.096654   2.146838   3.360406   3.962781   3.915264
    22  H    2.210948   1.093029   3.238018   2.632964   3.171097
    23  H    2.173860   1.096721   4.281996   4.009586   4.356586
    24  H    2.197246   1.094985   3.939970   3.904029   2.931404
    25  H    2.707826   2.936013   2.098797   1.098680   4.004826
    26  H    3.140227   2.985669   2.106659   1.096940   2.647078
    27  H    3.942852   4.295386   2.008110   1.094535   3.978077
    28  H    3.727550   3.713334   2.651683   2.747170   1.017776
    29  H    3.084823   2.572788   3.264436   3.235818   1.016799
                   11         12         13         14         15
    11  H    0.000000
    12  H    1.765126   0.000000
    13  H    1.769277   1.770700   0.000000
    14  H    2.512111   2.523831   3.079022   0.000000
    15  H    3.083306   2.468170   2.549351   1.750827   0.000000
    16  H    3.899012   4.330193   3.796492   2.502431   2.439174
    17  H    3.292738   3.803438   2.621044   3.078235   2.471136
    18  H    2.315068   3.839316   2.932226   3.258249   3.808147
    19  H    2.528141   3.746172   3.913486   2.287109   3.789846
    20  H    4.944134   5.873502   6.117657   3.670590   5.170488
    21  H    4.172970   4.719253   4.992685   2.252375   3.566869
    22  H    6.054206   7.124955   6.741992   4.939002   5.840235
    23  H    6.387466   7.083425   7.027772   4.622363   5.523581
    24  H    5.479490   6.209836   5.795658   3.971300   4.479208
    25  H    5.907290   7.276349   7.102771   5.423894   6.766636
    26  H    5.636855   7.114648   6.510487   5.480130   6.464663
    27  H    5.855987   7.472392   7.070884   6.115533   7.359063
    28  H    4.598543   6.066611   5.033328   4.938961   5.456192
    29  H    4.963508   6.102380   5.188500   4.490273   4.851434
                   16         17         18         19         20
    16  H    0.000000
    17  H    1.753256   0.000000
    18  H    3.053739   2.439747   0.000000
    19  H    3.294965   3.748808   2.311757   0.000000
    20  H    3.910986   5.151850   4.235749   2.467764   0.000000
    21  H    2.540991   3.957576   3.794703   2.273967   1.745291
    22  H    3.645169   4.847224   4.416408   3.964542   2.599556
    23  H    3.617585   5.229487   5.271894   4.285644   2.452969
    24  H    2.184265   3.662550   4.107384   3.862590   3.087498
    25  H    5.068768   5.932886   4.469474   3.561202   2.323945
    26  H    4.507911   5.020795   3.659482   3.775083   3.374294
    27  H    5.789417   6.166421   4.231546   3.978630   3.764152
    28  H    3.677441   3.482288   2.293876   3.679658   4.418497
    29  H    2.609645   3.010383   2.916730   3.799096   3.976596
                   21         22         23         24         25
    21  H    0.000000
    22  H    3.084044   0.000000
    23  H    2.494640   1.760305   0.000000
    24  H    2.478276   1.770001   1.757092   0.000000
    25  H    3.771472   2.373749   3.471241   3.851018   0.000000
    26  H    4.192838   2.203934   3.863954   3.463147   1.786903
    27  H    4.979932   3.636197   5.049219   4.975815   1.773608
    28  H    4.472616   3.345182   4.793754   3.604364   3.667317
    29  H    3.694626   2.402355   3.596789   2.144179   3.768707
                   26         27         28         29
    26  H    0.000000
    27  H    1.774066   0.000000
    28  H    2.109437   3.255389   0.000000
    29  H    2.470672   4.090621   1.632343   0.000000
 Stoichiometry    C8H19NO
 Framework group  C1[X(C8H19NO)]
 Deg. of freedom    81
 Full point group                 C1      NOp   1
 Largest Abelian subgroup         C1      NOp   1
 Largest concise Abelian subgroup C1      NOp   1
                         Standard orientation:                         
 ---------------------------------------------------------------------
 Center     Atomic      Atomic             Coordinates (Angstroms)
 Number     Number       Type             X           Y           Z
 ---------------------------------------------------------------------
      1          6           0       -3.252053   -0.779360   -0.573869
      2          6           0       -2.545814    0.565803   -0.362696
      3          6           0       -1.532455    0.567800    0.796599
      4          6           0       -0.387526   -0.444903    0.683537
      5          6           0        0.404916   -0.302149   -0.635448
      6          6           0        0.918733    1.103706   -0.995639
      7          6           0        1.636770    1.954063    0.068737
      8          8           0        1.395436   -1.340160   -0.702595
      9          6           0        2.710584   -1.057488   -0.263454
     10          7           0        0.394479   -0.435964    1.935919
     11          1           0       -2.556372   -1.560188   -0.900411
     12          1           0       -4.033843   -0.699218   -1.337998
     13          1           0       -3.725604   -1.122932    0.353402
     14          1           0       -2.057187    0.869523   -1.297927
     15          1           0       -3.298085    1.338314   -0.155210
     16          1           0       -1.117052    1.578717    0.910093
     17          1           0       -2.053348    0.347636    1.735742
     18          1           0       -0.824849   -1.448279    0.632182
     19          1           0       -0.291105   -0.576594   -1.441342
     20          1           0        1.565923    0.989984   -1.873942
     21          1           0        0.047586    1.670005   -1.346436
     22          1           0        2.503458    1.451924    0.506254
     23          1           0        1.999240    2.886768   -0.380121
     24          1           0        0.964459    2.240276    0.884256
     25          1           0        3.219483   -0.321007   -0.900411
     26          1           0        2.758443   -0.720125    0.779222
     27          1           0        3.255879   -2.003414   -0.340170
     28          1           0        1.055624   -1.209665    1.923985
     29          1           0        0.943582    0.416471    2.011556
 ---------------------------------------------------------------------
 Rotational constants (GHZ):           1.7764657           0.8059706           0.7603074
 Standard basis: 6-31G(d) (6D, 7F)
 There are   188 symmetry adapted cartesian basis functions of A   symmetry.
 There are   188 symmetry adapted basis functions of A   symmetry.
   188 basis functions,   356 primitive gaussians,   188 cartesian basis functions
    41 alpha electrons       41 beta electrons
       nuclear repulsion energy       610.6676592394 Hartrees.
 NAtoms=   29 NActive=   29 NUniq=   29 SFac= 1.00D+00 NAtFMM=   60 NAOKFM=F Big=F
 Integral buffers will be    131072 words long.
 Raffenetti 2 integral format.
 Two-electron integral symmetry is turned on.
 Nuclear repulsion after empirical dispersion term =      610.6199736104 Hartrees.
 One-electron integrals computed using PRISM.
 NBasis=   188 RedAO= T EigKep=  2.92D-03  NBF=   188
 NBsUse=   188 1.00D-06 EigRej= -1.00D+00 NBFU=   188
 Initial guess from the checkpoint file:  "JID_471.chk"
 B after Tr=    -0.000000    0.000000   -0.000000
         Rot=    0.999923   -0.008888   -0.008347   -0.002142 Ang=  -1.42 deg.
 ExpMin= 1.61D-01 ExpMax= 5.48D+03 ExpMxC= 8.25D+02 IAcc=2 IRadAn=         4 AccDes= 0.00D+00
 Harris functional with IExCor=  402 and IRadAn=       4 diagonalized for initial guess.
 HarFok:  IExCor=  402 AccDes= 0.00D+00 IRadAn=         4 IDoV= 1 UseB2=F ITyADJ=14
 ICtDFT=  3500011 ScaDFX=  1.000000  1.000000  1.000000  1.000000
 FoFCou: FMM=F IPFlag=           0 FMFlag=      100000 FMFlg1=           0
         NFxFlg=           0 DoJE=T BraDBF=F KetDBF=T FulRan=T
         wScrn=  0.000000 ICntrl=       500 IOpCl=  0 I1Cent=   200000004 NGrid=           0
         NMat0=    1 NMatS0=      1 NMatT0=    0 NMatD0=    1 NMtDS0=    0 NMtDT0=    0
 Petite list used in FoFCou.
 Keep R1 ints in memory in canonical form, NReq=161894728.
 Requested convergence on RMS density matrix=1.00D-08 within  32 cycles.
 Requested convergence on MAX density matrix=1.00D-06.
 Requested convergence on             energy=1.00D-06.
 No special actions if energy rises.
 Integral accuracy reduced to 1.0D-05 until final iterations.
[...]
   152    C    7  dyz    Ryd( 3d)     0.00035       2.33896
   153    C    7  dx2y2  Ryd( 3d)     0.00025       2.08790
   154    C    7  dz2    Ryd( 3d)     0.00016       1.99901
 
   155    O    8  S      Cor( 1S)     0.99988     -18.81959
   156    O    8  S      Val( 2S)     0.80382      -0.74308
   157    O    8  S      Ryd( 3S)     0.00218       1.16281
   158    O    8  S      Ryd( 4S)     0.00005       2.18854
   159    O    8  S      Ryd( 5S)     0.00000      49.82620
   160    O    8  px     Val( 2p)     0.69978      -0.17252
   161    O    8  px     Ryd( 3p)     0.00127       1.15663
   162    O    8  px     Ryd( 4p)     0.00023       1.47637
   163    O    8  px     Ryd( 5p)     0.00001       5.31244
   164    O    8  py     Val( 2p)     0.84593      -0.19349
   165    O    8  py     Ryd( 3p)     0.00170       0.69948
   166    O    8  py     Ryd( 4p)     0.00025       1.24023
   167    O    8  py     Ryd( 5p)     0.00002       5.19892
   168    O    8  pz     Val( 2p)     0.94978      -0.18409
   169    O    8  pz     Ryd( 3p)     0.00334       0.72326
   170    O    8  pz     Ryd( 4p)     0.00015       1.20965
   171    O    8  pz     Ryd( 5p)     0.00000       5.13311
   172    O    8  dxy    Ryd( 3d)     0.00048       3.52458
   173    O    8  dxz    Ryd( 3d)     0.00019       3.21551
   174    O    8  dyz    Ryd( 3d)     0.00031       3.07817
   175    O    8  dx2y2  Ryd( 3d)     0.00041       3.38237
   176    O    8  dz2    Ryd( 3d)     0.00031       3.30416
 
   177    C    9  S      Cor( 1S)     0.99960      -9.98217
   178    C    9  S      Val( 2S)     0.53098      -0.15488
   179    C    9  S      Ryd( 4S)     0.00108       2.24411
   180    C    9  S      Ryd( 3S)     0.00079       1.45650
   181    C    9  S      Ryd( 5S)     0.00002      20.29275
   182    C    9  px     Val( 2p)     0.39120       0.03791
   183    C    9  px     Ryd( 3p)     0.00154       0.97596
   184    C    9  px     Ryd( 4p)     0.00044       1.16402
   185    C    9  px     Ryd( 5p)     0.00009       2.44077
   186    C    9  py     Val( 2p)     0.59081       0.00829
   187    C    9  py     Ryd( 3p)     0.00114       0.75925
   188    C    9  py     Ryd( 4p)     0.00052       1.22280
   189    C    9  py     Ryd( 5p)     0.00003       2.53241
   190    C    9  pz     Val( 2p)     0.57521       0.01175
   191    C    9  pz     Ryd( 3p)     0.00049       0.52988
   192    C    9  pz     Ryd( 4p)     0.00030       1.37770
   193    C    9  pz     Ryd( 5p)     0.00004       2.46936
   194    C    9  dxy    Ryd( 3d)     0.00089       2.20273
   195    C    9  dxz    Ryd( 3d)     0.00094       2.00239
   196    C    9  dyz    Ryd( 3d)     0.00034       2.14318
   197    C    9  dx2y2  Ryd( 3d)     0.00067       2.22823
   198    C    9  dz2    Ryd( 3d)     0.00063       2.27466
 
   199    N   10  S      Cor( 1S)     0.99977     -14.01191
   200    N   10  S      Val( 2S)     0.70453      -0.45877
   201    N   10  S      Ryd( 3S)     0.00040       1.76345
   202    N   10  S      Ryd( 4S)     0.00021       1.82282
   203    N   10  S      Ryd( 5S)     0.00000      34.54155
   204    N   10  px     Val( 2p)     0.74927      -0.08347
   205    N   10  px     Ryd( 3p)     0.00205       0.75315
   206    N   10  px     Ryd( 4p)     0.00009       0.96938
   207    N   10  px     Ryd( 5p)     0.00001       4.27901
   208    N   10  py     Val( 2p)     0.67569      -0.07070
   209    N   10  py     Ryd( 4p)     0.00112       0.78569
   210    N   10  py     Ryd( 3p)     0.00012       0.78088
   211    N   10  py     Ryd( 5p)     0.00000       4.38917
   212    N   10  pz     Val( 2p)     0.78391      -0.10272
   213    N   10  pz     Ryd( 3p)     0.00289       0.82311
   214    N   10  pz     Ryd( 4p)     0.00017       1.35398
   215    N   10  pz     Ryd( 5p)     0.00001       4.18829
   216    N   10  dxy    Ryd( 3d)     0.00070       3.04175
   217    N   10  dxz    Ryd( 3d)     0.00043       2.68488
   218    N   10  dyz    Ryd( 3d)     0.00016       2.48734
   219    N   10  dx2y2  Ryd( 3d)     0.00012       2.54126
   220    N   10  dz2    Ryd( 3d)     0.00068       2.79702
 
   221    H   11  S      Val( 1S)     0.40301       0.13692
   222    H   11  S      Ryd( 2S)     0.00042       0.62491
   223    H   11  S      Ryd( 4S)     0.00035       1.79191
   224    H   11  S      Ryd( 3S)     0.00002       0.83880
   225    H   11  px     Ryd( 2p)     0.00009       2.23762
   226    H   11  py     Ryd( 2p)     0.00010       2.35219
   227    H   11  pz     Ryd( 2p)     0.00008       1.97780
 
   228    H   12  S      Val( 1S)     0.39943       0.13735
   229    H   12  S      Ryd( 2S)     0.00052       0.33944
   230    H   12  S      Ryd( 4S)     0.00025       1.40505
   231    H   12  S      Ryd( 3S)     0.00001       1.30537
   232    H   12  px     Ryd( 2p)     0.00010       2.33016
   233    H   12  py     Ryd( 2p)     0.00006       1.83015
   234    H   12  pz     Ryd( 2p)     0.00011       2.32802
 
   235    H   13  S      Val( 1S)     0.40438       0.13301
   236    H   13  S      Ryd( 2S)     0.00029       0.43589
   237    H   13  S      Ryd( 4S)     0.00034       1.64629
   238    H   13  S      Ryd( 3S)     0.00002       1.13085
   239    H   13  px     Ryd( 2p)     0.00008       2.11434
   240    H   13  py     Ryd( 2p)     0.00007       1.89689
   241    H   13  pz     Ryd( 2p)     0.00012       2.51524
 
   242    H   14  S      Val( 1S)     0.40449       0.14006
   243    H   14  S      Ryd( 2S)     0.00072       0.58260
   244    H   14  S      Ryd( 4S)     0.00051       1.92000
   245    H   14  S      Ryd( 3S)     0.00001       0.85724
   246    H   14  px     Ryd( 2p)     0.00009       2.10908
   247    H   14  py     Ryd( 2p)     0.00008       2.02884
   248    H   14  pz     Ryd( 2p)     0.00015       2.65292
 
   249    H   15  S      Val( 1S)     0.40222       0.14164
   250    H   15  S      Ryd( 2S)     0.00053       0.36382
   251    H   15  S      Ryd( 4S)     0.00042       1.77964
   252    H   15  S      Ryd( 3S)     0.00001       1.10159
   253    H   15  px     Ryd( 2p)     0.00011       2.37480
   254    H   15  py     Ryd( 2p)     0.00013       2.39751
   255    H   15  pz     Ryd( 2p)     0.00007       1.92166
 
   256    H   16  S      Val( 1S)     0.40100       0.14441
   257    H   16  S      Ryd( 2S)     0.00061       0.59714
   258    H   16  S      Ryd( 4S)     0.00037       1.78321
   259    H   16  S      Ryd( 3S)     0.00001       1.05689
   260    H   16  px     Ryd( 2p)     0.00008       2.06420
   261    H   16  py     Ryd( 2p)     0.00014       2.74439
   262    H   16  pz     Ryd( 2p)     0.00007       2.01268
 
   263    H   17  S      Val( 1S)     0.39750       0.15433
   264    H   17  S      Ryd( 2S)     0.00047       0.48885
   265    H   17  S      Ryd( 4S)     0.00053       1.83208
   266    H   17  S      Ryd( 3S)     0.00001       1.09004
   267    H   17  px     Ryd( 2p)     0.00006       2.17174
   268    H   17  py     Ryd( 2p)     0.00007       1.96764
   269    H   17  pz     Ryd( 2p)     0.00013       2.61294
 
   270    H   18  S      Val( 1S)     0.40563       0.15231
   271    H   18  S      Ryd( 2S)     0.00113       1.24609
   272    H   18  S      Ryd( 3S)     0.00041       2.48795
   273    H   18  S      Ryd( 4S)     0.00013       3.51743
   274    H   18  px     Ryd( 2p)     0.00008       2.21270
   275    H   18  py     Ryd( 2p)     0.00015       2.80418
   276    H   18  pz     Ryd( 2p)     0.00007       2.01984
 
   277    H   19  S      Val( 1S)     0.40613       0.14213
   278    H   19  S      Ryd( 2S)     0.00121       0.45401
   279    H   19  S      Ryd( 3S)     0.00045       1.26342
   280    H   19  S      Ryd( 4S)     0.00007       1.73939
   281    H   19  px     Ryd( 2p)     0.00011       2.29740
   282    H   19  py     Ryd( 2p)     0.00011       2.11272
   283    H   19  pz     Ryd( 2p)     0.00016       2.51549
 
   284    H   20  S      Val( 1S)     0.39539       0.14585
   285    H   20  S      Ryd( 2S)     0.00060       0.49338
   286    H   20  S      Ryd( 4S)     0.00046       1.89036
   287    H   20  S      Ryd( 3S)     0.00001       0.99822
   288    H   20  px     Ryd( 2p)     0.00009       2.26964
   289    H   20  py     Ryd( 2p)     0.00008       1.93653
   290    H   20  pz     Ryd( 2p)     0.00012       2.55112
 
   291    H   21  S      Val( 1S)     0.39439       0.14657
   292    H   21  S      Ryd( 2S)     0.00066       0.57258
   293    H   21  S      Ryd( 4S)     0.00045       1.89474
   294    H   21  S      Ryd( 3S)     0.00001       0.94987
   295    H   21  px     Ryd( 2p)     0.00010       2.48318
   296    H   21  py     Ryd( 2p)     0.00010       2.18779
   297    H   21  pz     Ryd( 2p)     0.00010       2.09928
 
   298    H   22  S      Val( 1S)     0.39977       0.14094
   299    H   22  S      Ryd( 2S)     0.00118       0.52170
   300    H   22  S      Ryd( 4S)     0.00030       1.86842
   301    H   22  S      Ryd( 3S)     0.00002       0.81598
   302    H   22  px     Ryd( 2p)     0.00012       2.55702
   303    H   22  py     Ryd( 2p)     0.00009       2.07959
   304    H   22  pz     Ryd( 2p)     0.00009       2.06780
 
   305    H   23  S      Val( 1S)     0.39421       0.14360
   306    H   23  S      Ryd( 2S)     0.00113       0.40464
   307    H   23  S      Ryd( 4S)     0.00025       1.59850
   308    H   23  S      Ryd( 3S)     0.00002       1.15307
   309    H   23  px     Ryd( 2p)     0.00008       2.00908
   310    H   23  py     Ryd( 2p)     0.00012       2.51292
   311    H   23  pz     Ryd( 2p)     0.00008       2.03124
 
   312    H   24  S      Val( 1S)     0.40531       0.13337
   313    H   24  S      Ryd( 2S)     0.00076       0.62577
   314    H   24  S      Ryd( 4S)     0.00036       1.74035
   315    H   24  S      Ryd( 3S)     0.00001       0.85973
   316    H   24  px     Ryd( 2p)     0.00009       2.23026
   317    H   24  py     Ryd( 2p)     0.00009       1.99431
   318    H   24  pz     Ryd( 2p)     0.00011       2.35790
 
   319    H   25  S      Val( 1S)     0.41619       0.11633
   320    H   25  S      Ryd( 2S)     0.00092       0.47606
   321    H   25  S      Ryd( 4S)     0.00044       1.42860
   322    H   25  S      Ryd( 3S)     0.00004       1.26214
   323    H   25  px     Ryd( 2p)     0.00006       2.07357
   324    H   25  py     Ryd( 2p)     0.00015       2.30684
   325    H   25  pz     Ryd( 2p)     0.00013       2.25647
 
   326    H   26  S      Val( 1S)     0.42357       0.10676
   327    H   26  S      Ryd( 2S)     0.00079       0.54700
   328    H   26  S      Ryd( 4S)     0.00058       1.49879
   329    H   26  S      Ryd( 3S)     0.00006       1.09211
   330    H   26  px     Ryd( 2p)     0.00006       1.89639
   331    H   26  py     Ryd( 2p)     0.00012       2.03309
   332    H   26  pz     Ryd( 2p)     0.00018       2.73510
 
   333    H   27  S      Val( 1S)     0.40932       0.12420
   334    H   27  S      Ryd( 2S)     0.00062       0.39533
   335    H   27  S      Ryd( 4S)     0.00025       1.34935
   336    H   27  S      Ryd( 3S)     0.00002       1.33772
   337    H   27  px     Ryd( 2p)     0.00005       2.07973
   338    H   27  py     Ryd( 2p)     0.00017       2.56654
   339    H   27  pz     Ryd( 2p)     0.00009       1.86588
 
   340    H   28  S      Val( 1S)     0.32165       0.19953
   341    H   28  S      Ryd( 2S)     0.00090       0.55561
   342    H   28  S      Ryd( 4S)     0.00038       1.70250
   343    H   28  S      Ryd( 3S)     0.00003       1.23795
   344    H   28  px     Ryd( 2p)     0.00037       2.25337
   345    H   28  py     Ryd( 2p)     0.00019       2.40644
   346    H   28  pz     Ryd( 2p)     0.00034       1.91643
 
   347    H   29  S      Val( 1S)     0.32413       0.19501
   348    H   29  S      Ryd( 2S)     0.00131       0.61703
   349    H   29  S      Ryd( 4S)     0.00032       1.87857
   350    H   29  S      Ryd( 3S)     0.00002       1.04381
   351    H   29  px     Ryd( 2p)     0.00038       2.04502
   352    H   29  py     Ryd( 2p)     0.00021       2.59098
   353    H   29  pz     Ryd( 2p)     0.00031       1.99911

 WARNING:  Population inversion found on atom  C    1
           Population inversion found on atom  C    3
           Population inversion found on atom  C    4
           Population inversion found on atom  C    5
           Population inversion found on atom  C    6
           Population inversion found on atom  C    7
           Population inversion found on atom  C    9
           Population inversion found on atom  N   10
           Population inversion found on atom  H   11
           Population inversion found on atom  H   12
           Population inversion found on atom  H   13
           Population inversion found on atom  H   14
           Population inversion found on atom  H   15
           Population inversion found on atom  H   16
           Population inversion found on atom  H   17
           Population inversion found on atom  H   20
           Population inversion found on atom  H   21
           Population inversion found on atom  H   22
           Population inversion found on atom  H   23
           Population inversion found on atom  H   24
           Population inversion found on atom  H   25
           Population inversion found on atom  H   26
           Population inversion found on atom  H   27
           Population inversion found on atom  H   28
           Population inversion found on atom  H   29


 Summary of Natural Population Analysis:                  
                                                          
                                       Natural Population 
                Natural  -----------------------------------------------
    Atom  No    Charge         Core      Valence    Rydberg      Total
 -----------------------------------------------------------------------
      C    1   -0.28760      0.99967     2.28209    0.00584     3.28760
      C    2   -0.19111      0.99964     2.18346    0.00802     3.19111
      C    3   -0.19352      0.99960     2.18440    0.00951     3.19352
      C    4   -0.02326      0.99956     2.01091    0.01279     3.02326
      C    5    0.06633      0.99949     1.91906    0.01512     2.93367
      C    6   -0.21181      0.99961     2.20289    0.00930     3.21181
      C    7   -0.29149      0.99966     2.28559    0.00624     3.29149
      O    8   -0.31008      0.99988     3.29931    0.01089     4.31008
      C    9   -0.09774      0.99960     2.08820    0.00995     3.09774
      N   10   -0.42233      0.99977     2.91340    0.00917     3.92233
      H   11    0.09595      0.00000     0.40301    0.00105     0.40405
      H   12    0.09952      0.00000     0.39943    0.00105     0.40048
      H   13    0.09469      0.00000     0.40438    0.00092     0.40531
      H   14    0.09395      0.00000     0.40449    0.00156     0.40605
      H   15    0.09650      0.00000     0.40222    0.00127     0.40350
      H   16    0.09772      0.00000     0.40100    0.00128     0.40228
      H   17    0.10123      0.00000     0.39750    0.00127     0.39877
      H   18    0.09238      0.00000     0.40563    0.00199     0.40762
      H   19    0.09177      0.00000     0.40613    0.00210     0.40823
      H   20    0.10325      0.00000     0.39539    0.00135     0.39675
      H   21    0.10419      0.00000     0.39439    0.00143     0.39581
      H   22    0.09845      0.00000     0.39977    0.00179     0.40155
      H   23    0.10410      0.00000     0.39421    0.00169     0.39590
      H   24    0.09326      0.00000     0.40531    0.00143     0.40674
      H   25    0.08207      0.00000     0.41619    0.00174     0.41793
      H   26    0.07464      0.00000     0.42357    0.00178     0.42536
      H   27    0.08948      0.00000     0.40932    0.00119     0.41052
      H   28    0.17614      0.00000     0.32165    0.00222     0.32386
      H   29    0.17332      0.00000     0.32413    0.00255     0.32668
 =======================================================================
   * Total *    0.00000      9.99647    30.87702    0.12651    41.00000

                                 Natural Population      
 --------------------------------------------------------
   Core                       9.99647 ( 99.9647% of  10)
   Valence                   30.87702 ( 99.6033% of  31)
   Natural Minimal Basis     40.87349 ( 99.6914% of  41)
   Natural Rydberg Basis      0.12651 (  0.3086% of  41)
 --------------------------------------------------------

    Atom  No          Natural Electron Configuration
 ----------------------------------------------------------------------------
      C    1      [core]2S( 0.54)2p( 1.74)
      C    2      [core]2S( 0.51)2p( 1.67)
      C    3      [core]2S( 0.51)2p( 1.68)3p( 0.01)
      C    4      [core]2S( 0.47)2p( 1.54)3p( 0.01)
      C    5      [core]2S( 0.47)2p( 1.45)3p( 0.01)
      C    6      [core]2S( 0.51)2p( 1.69)
      C    7      [core]2S( 0.54)2p( 1.75)
      O    8      [core]2S( 0.80)2p( 2.50)3p( 0.01)
      C    9      [core]2S( 0.53)2p( 1.56)
      N   10      [core]2S( 0.70)2p( 2.21)3p( 0.01)
      H   11            1S( 0.40)
      H   12            1S( 0.40)
      H   13            1S( 0.40)
      H   14            1S( 0.40)
      H   15            1S( 0.40)
      H   16            1S( 0.40)
      H   17            1S( 0.40)
      H   18            1S( 0.41)
      H   19            1S( 0.41)
      H   20            1S( 0.40)
      H   21            1S( 0.39)
      H   22            1S( 0.40)
      H   23            1S( 0.39)
      H   24            1S( 0.41)
      H   25            1S( 0.42)
      H   26            1S( 0.42)
      H   27            1S( 0.41)
      H   28            1S( 0.32)
      H   29            1S( 0.32)


 NBO analysis skipped by request.
 1\1\GINC-NODE122\SP\UB3LYP\6-311++G(d,p)\C8H19N1O1(1-,2)\VSC10255\08-D
 ec-2020\0\\# B3LYP/6-311++G(d,p) empiricaldispersion=gd3bj scf=xqc pop
 =npa geom=check\\CID_43184582_JID_471_Energie_anion\\-1,2\C,0,0.935476
 403,0.08328262,-0.0316271646\C,0,0.5806074336,-0.3124146332,1.40512016
 04\C,0,1.1236725556,0.6508389928,2.4724582467\C,0,0.6609574162,2.11125
 6438,2.3568785405\C,0,-0.8788568046,2.2759223363,2.3774394457\C,0,-1.6
 51380158,1.5964038905,3.524637618\C,0,-1.1851390839,1.7714909511,4.977
 9939068\O,0,-1.1959679078,3.6631853841,2.1508426417\C,0,-1.5579782544,
 4.4865308936,3.2371640483\N,0,1.4099719691,2.9318517545,3.3169941724\H
 ,0,0.4600581867,1.0258177576,-0.3246793262\H,0,0.6097875028,-0.6840700
 191,-0.7426292172\H,0,2.0187761654,0.2099832604,-0.146965533\H,0,-0.50
 92348384,-0.4102094065,1.4969645631\H,0,0.9866960907,-1.3111260064,1.6
 117334683\H,0,0.8675652146,0.2620952142,3.4674235735\H,0,2.2193723961,
 0.6640298273,2.4257243341\H,0,0.9667726671,2.4835420764,1.3712850665\H
 ,0,-1.2500220203,1.7964735963,1.4621804847\H,0,-2.7005602578,1.9063662
 184,3.439062489\H,0,-1.650087233,0.5222635519,3.3022918341\H,0,-1.1204
 967254,2.8184837981,5.2844746564\H,0,-1.8938305445,1.2774144327,5.6525
 211236\H,0,-0.2085646118,1.3082964814,5.1509766633\H,0,-2.4548864175,4
 .1298617141,3.7621940503\H,0,-0.7524131448,4.6101655297,3.9754395202\H
 ,0,-1.7833137316,5.4673881342,2.8079620603\H,0,1.1772412732,3.91064399
 03,3.1672249744\H,0,1.1416964597,2.7075912215,4.2718235989\\Version=ES
 64L-G16RevA.03\State=2-A\HF=-446.4092253\S2=0.750043\S2-1=0.\S2A=0.75\
 RMSD=2.601e-09\Dipole=0.9703506,0.307271,-0.829913\Quadrupole=3.414229
 2,-3.1433493,-0.2708799,6.0679706,7.7537568,-7.5455976\PG=C01 [X(C8H19
 N1O1)]\\@


 Democracy is the recurrent suspicion that more than half of the people
 are right more than half of the time.
 -- E. B. White
 Job cpu time:       0 days  0 hours 31 minutes  1.1 seconds.
 Elapsed time:       0 days  0 hours  8 minutes  5.4 seconds.
 File lengths (MBytes):  RWF=    172 Int=      0 D2E=      0 Chk=     16 Scr=      8
 Normal termination of Gaussian 16 at Tue Dec  8 11:15:49 2020.
