 Entering Gaussian System, Link 0=g16
 Initial command:
 /apps/brussel/CO7/skylake/software/Gaussian/G16.A.03-intel-2017b/g16/l1.exe "/scratch/brussel/102/vsc10255/3569960[3776].master01.hydra.brussel.vsc/Gau-156762.inp" -scrdir="/scratch/brussel/102/vsc10255/3569960[3776].master01.hydra.brussel.vsc/"
 Entering Link 1 = /apps/brussel/CO7/skylake/software/Gaussian/G16.A.03-intel-2017b/g16/l1.exe.bin PID=    156765.
  
 Copyright (c) 1988,1990,1992,1993,1995,1998,2003,2009,2016,
            Gaussian, Inc.  All Rights Reserved.
  
 This is part of the Gaussian(R) 16 program.  It is based on
 the Gaussian(R) 09 system (copyright 2009, Gaussian, Inc.),
 the Gaussian(R) 03 system (copyright 2003, Gaussian, Inc.),
 the Gaussian(R) 98 system (copyright 1998, Gaussian, Inc.),
 the Gaussian(R) 94 system (copyright 1995, Gaussian, Inc.),
 the Gaussian 92(TM) system (copyright 1992, Gaussian, Inc.),
 the Gaussian 90(TM) system (copyright 1990, Gaussian, Inc.),
 the Gaussian 88(TM) system (copyright 1988, Gaussian, Inc.),
 the Gaussian 86(TM) system (copyright 1986, Carnegie Mellon
 University), and the Gaussian 82(TM) system (copyright 1983,
 Carnegie Mellon University). Gaussian is a federally registered
 trademark of Gaussian, Inc.
  
 This software contains proprietary and confidential information,
 including trade secrets, belonging to Gaussian, Inc.
  
 This software is provided under written license and may be
 used, copied, transmitted, or stored only in accord with that
 written license.
  
 The following legend is applicable only to US Government
 contracts under FAR:
  
                    RESTRICTED RIGHTS LEGEND
  
 Use, reproduction and disclosure by the US Government is
 subject to restrictions as set forth in subparagraphs (a)
 and (c) of the Commercial Computer Software - Restricted
 Rights clause in FAR 52.227-19.
  
 Gaussian, Inc.
 340 Quinnipiac St., Bldg. 40, Wallingford CT 06492
  
  
 ---------------------------------------------------------------
 Warning -- This program may not be used in any manner that
 competes with the business of Gaussian, Inc. or will provide
 assistance to any competitor of Gaussian, Inc.  The licensee
 of this program is prohibited from giving any competitor of
 Gaussian, Inc. access to this program.  By using this program,
 the user acknowledges that Gaussian, Inc. is engaged in the
 business of creating and licensing software in the field of
 computational chemistry and represents and warrants to the
 licensee that it is not a competitor of Gaussian, Inc. and that
 it will not use this program in any manner prohibited above.
 ---------------------------------------------------------------
  

 Cite this work as:
 Gaussian 16, Revision A.03,
 M. J. Frisch, G. W. Trucks, H. B. Schlegel, G. E. Scuseria, 
 M. A. Robb, J. R. Cheeseman, G. Scalmani, V. Barone, 
 G. A. Petersson, H. Nakatsuji, X. Li, M. Caricato, A. V. Marenich, 
 J. Bloino, B. G. Janesko, R. Gomperts, B. Mennucci, H. P. Hratchian, 
 J. V. Ortiz, A. F. Izmaylov, J. L. Sonnenberg, D. Williams-Young, 
 F. Ding, F. Lipparini, F. Egidi, J. Goings, B. Peng, A. Petrone, 
 T. Henderson, D. Ranasinghe, V. G. Zakrzewski, J. Gao, N. Rega, 
 G. Zheng, W. Liang, M. Hada, M. Ehara, K. Toyota, R. Fukuda, 
 J. Hasegawa, M. Ishida, T. Nakajima, Y. Honda, O. Kitao, H. Nakai, 
 T. Vreven, K. Throssell, J. A. Montgomery, Jr., J. E. Peralta, 
 F. Ogliaro, M. J. Bearpark, J. J. Heyd, E. N. Brothers, K. N. Kudin, 
 V. N. Staroverov, T. A. Keith, R. Kobayashi, J. Normand, 
 K. Raghavachari, A. P. Rendell, J. C. Burant, S. S. Iyengar, 
 J. Tomasi, M. Cossi, J. M. Millam, M. Klene, C. Adamo, R. Cammi, 
 J. W. Ochterski, R. L. Martin, K. Morokuma, O. Farkas, 
 J. B. Foresman, and D. J. Fox, Gaussian, Inc., Wallingford CT, 2016.
 
 ******************************************
 Gaussian 16:  ES64L-G16RevA.03 25-Dec-2016
                13-Dec-2020 
 ******************************************
 %chk=JID_3776.chk
 %mem=8GB
 %nprocshared=4
 Will use up to    4 processors via shared memory.
 -----------------------------------------------------------
 # opt freq B3LYP/6-31G(d) empiricaldispersion=gd3bj scf=xqc
 -----------------------------------------------------------
 1/18=20,19=15,26=3,38=1/1,3;
 2/9=110,12=2,17=6,18=5,40=1/2;
 3/5=1,6=6,7=1,11=2,25=1,30=1,71=1,74=-5,124=41/1,2,3;
 4//1;
 5/5=2,8=3,13=1,38=5/2,8;
 6/7=2,8=2,9=2,10=2,28=1/1;
 7//1,2,3,16;
 1/18=20,19=15,26=3/3(2);
 2/9=110/2;
 99//99;
 2/9=110/2;
 3/5=1,6=6,7=1,11=2,25=1,30=1,71=1,74=-5,124=41/1,2,3;
 4/5=5,16=3,69=1/1;
 5/5=2,8=3,13=1,38=5/2,8;
 7//1,2,3,16;
 1/18=20,19=15,26=3/3(-5);
 2/9=110/2;
 6/7=2,8=2,9=2,10=2,19=2,28=1/1;
 99/9=1/99;
 ------------------------------
 CID_87830970_JID_3776_neutraal
 ------------------------------
 Symbolic Z-matrix:
 Charge =  0 Multiplicity = 1
 C                     1.0606    0.00605   0.07931 
 C                     0.79446   1.41437   0.50153 
 C                    -0.16411   2.18739  -0.03173 
 C                    -0.43462   3.603     0.39447 
 C                    -0.05151   4.63888  -0.66819 
 C                    -0.78843   4.52213  -2.00804 
 C                    -2.31533   4.62198  -1.93375 
 C                    -2.86341   5.91608  -1.3234 
 C                    -2.42491   7.21092  -2.01572 
 C                    -2.76207   7.31057  -3.50713 
 C                    -4.24775   7.17122  -3.86259 
 C                    -5.20284   8.15245  -3.18188 
 S                    -4.90594   9.88362  -3.64647 
 H                     0.38052  -0.325    -0.71186 
 H                     0.94359  -0.66728   0.93389 
 H                     2.08594  -0.08378  -0.29216 
 H                     1.43575   1.81001   1.28618 
 H                    -0.80553   1.7828   -0.81205 
 H                    -1.49436   3.69678   0.65645 
 H                     0.12242   3.8315    1.31205 
 H                    -0.21053   5.64061  -0.2518 
 H                     1.02617   4.56402  -0.86438 
 H                    -0.4054    5.29824  -2.68121 
 H                    -0.52734   3.56941  -2.4845 
 H                    -2.71861   4.49943  -2.94598 
 H                    -2.70818   3.77445  -1.35965 
 H                    -3.95851   5.85977  -1.32016 
 H                    -2.57057   5.97171  -0.26812 
 H                    -2.87476   8.05764  -1.48383 
 H                    -1.3419    7.33584  -1.89774 
 H                    -2.38207   8.26721  -3.88449 
 H                    -2.20448   6.54248  -4.05648 
 H                    -4.35304   7.26002  -4.95182 
 H                    -4.57592   6.15328  -3.61948 
 H                    -6.22946   7.90859  -3.47494 
 H                    -5.15082   8.06568  -2.09279 
 H                    -3.719     10.01138  -3.03605 
 

 GradGradGradGradGradGradGradGradGradGradGradGradGradGradGradGradGradGrad
 Berny optimization.
 Initialization pass.
                           ----------------------------
                           !    Initial Parameters    !
                           ! (Angstroms and Degrees)  !
 --------------------------                            --------------------------
 ! Name  Definition              Value          Derivative Info.                !
 --------------------------------------------------------------------------------
 ! R1    R(1,2)                  1.4941         estimate D2E/DX2                !
 ! R2    R(1,14)                 1.0946         estimate D2E/DX2                !
 ! R3    R(1,15)                 1.0942         estimate D2E/DX2                !
 ! R4    R(1,16)                 1.0942         estimate D2E/DX2                !
 ! R5    R(2,3)                  1.3419         estimate D2E/DX2                !
 ! R6    R(2,17)                 1.0879         estimate D2E/DX2                !
 ! R7    R(3,4)                  1.5029         estimate D2E/DX2                !
 ! R8    R(3,18)                 1.0881         estimate D2E/DX2                !
 ! R9    R(4,5)                  1.5327         estimate D2E/DX2                !
 ! R10   R(4,19)                 1.0957         estimate D2E/DX2                !
 ! R11   R(4,20)                 1.0975         estimate D2E/DX2                !
 ! R12   R(5,6)                  1.5336         estimate D2E/DX2                !
 ! R13   R(5,21)                 1.0964         estimate D2E/DX2                !
 ! R14   R(5,22)                 1.0979         estimate D2E/DX2                !
 ! R15   R(6,7)                  1.532          estimate D2E/DX2                !
 ! R16   R(6,23)                 1.0965         estimate D2E/DX2                !
 ! R17   R(6,24)                 1.0967         estimate D2E/DX2                !
 ! R18   R(7,8)                  1.5322         estimate D2E/DX2                !
 ! R19   R(7,25)                 1.0965         estimate D2E/DX2                !
 ! R20   R(7,26)                 1.0965         estimate D2E/DX2                !
 ! R21   R(8,9)                  1.5324         estimate D2E/DX2                !
 ! R22   R(8,27)                 1.0966         estimate D2E/DX2                !
 ! R23   R(8,28)                 1.0966         estimate D2E/DX2                !
 ! R24   R(9,10)                 1.5323         estimate D2E/DX2                !
 ! R25   R(9,29)                 1.0965         estimate D2E/DX2                !
 ! R26   R(9,30)                 1.0966         estimate D2E/DX2                !
 ! R27   R(10,11)                1.534          estimate D2E/DX2                !
 ! R28   R(10,31)                1.0963         estimate D2E/DX2                !
 ! R29   R(10,32)                1.0967         estimate D2E/DX2                !
 ! R30   R(11,12)                1.5292         estimate D2E/DX2                !
 ! R31   R(11,33)                1.0979         estimate D2E/DX2                !
 ! R32   R(11,34)                1.0968         estimate D2E/DX2                !
 ! R33   R(12,13)                1.8168         estimate D2E/DX2                !
 ! R34   R(12,35)                1.0951         estimate D2E/DX2                !
 ! R35   R(12,36)                1.0938         estimate D2E/DX2                !
 ! R36   R(13,37)                1.3408         estimate D2E/DX2                !
 ! A1    A(2,1,14)             112.2509         estimate D2E/DX2                !
 ! A2    A(2,1,15)             109.8924         estimate D2E/DX2                !
 ! A3    A(2,1,16)             109.8898         estimate D2E/DX2                !
 ! A4    A(14,1,15)            108.1773         estimate D2E/DX2                !
 ! A5    A(14,1,16)            108.1794         estimate D2E/DX2                !
 ! A6    A(15,1,16)            108.3491         estimate D2E/DX2                !
 ! A7    A(1,2,3)              123.911          estimate D2E/DX2                !
 ! A8    A(1,2,17)             116.2067         estimate D2E/DX2                !
 ! A9    A(3,2,17)             119.8815         estimate D2E/DX2                !
 ! A10   A(2,3,4)              123.9497         estimate D2E/DX2                !
 ! A11   A(2,3,18)             119.4627         estimate D2E/DX2                !
 ! A12   A(4,3,18)             116.5825         estimate D2E/DX2                !
 ! A13   A(3,4,5)              113.2656         estimate D2E/DX2                !
 ! A14   A(3,4,19)             108.815          estimate D2E/DX2                !
 ! A15   A(3,4,20)             109.9896         estimate D2E/DX2                !
 ! A16   A(5,4,19)             110.469          estimate D2E/DX2                !
 ! A17   A(5,4,20)             108.1857         estimate D2E/DX2                !
 ! A18   A(19,4,20)            105.8542         estimate D2E/DX2                !
 ! A19   A(4,5,6)              115.7336         estimate D2E/DX2                !
 ! A20   A(4,5,21)             108.538          estimate D2E/DX2                !
 ! A21   A(4,5,22)             108.8541         estimate D2E/DX2                !
 ! A22   A(6,5,21)             109.3695         estimate D2E/DX2                !
 ! A23   A(6,5,22)             108.0801         estimate D2E/DX2                !
 ! A24   A(21,5,22)            105.8139         estimate D2E/DX2                !
 ! A25   A(5,6,7)              115.5694         estimate D2E/DX2                !
 ! A26   A(5,6,23)             108.3392         estimate D2E/DX2                !
 ! A27   A(5,6,24)             109.347          estimate D2E/DX2                !
 ! A28   A(7,6,23)             109.3791         estimate D2E/DX2                !
 ! A29   A(7,6,24)             108.3582         estimate D2E/DX2                !
 ! A30   A(23,6,24)            105.3669         estimate D2E/DX2                !
 ! A31   A(6,7,8)              115.5243         estimate D2E/DX2                !
 ! A32   A(6,7,25)             108.3323         estimate D2E/DX2                !
 ! A33   A(6,7,26)             109.3972         estimate D2E/DX2                !
 ! A34   A(8,7,25)             109.3039         estimate D2E/DX2                !
 ! A35   A(8,7,26)             108.4282         estimate D2E/DX2                !
 ! A36   A(25,7,26)            105.3785         estimate D2E/DX2                !
 ! A37   A(7,8,9)              115.5531         estimate D2E/DX2                !
 ! A38   A(7,8,27)             108.3633         estimate D2E/DX2                !
 ! A39   A(7,8,28)             109.3096         estimate D2E/DX2                !
 ! A40   A(9,8,27)             109.2993         estimate D2E/DX2                !
 ! A41   A(9,8,28)             108.3908         estimate D2E/DX2                !
 ! A42   A(27,8,28)            105.4537         estimate D2E/DX2                !
 ! A43   A(8,9,10)             115.5772         estimate D2E/DX2                !
 ! A44   A(8,9,29)             108.4187         estimate D2E/DX2                !
 ! A45   A(8,9,30)             109.2853         estimate D2E/DX2                !
 ! A46   A(10,9,29)            109.3697         estimate D2E/DX2                !
 ! A47   A(10,9,30)            108.3385         estimate D2E/DX2                !
 ! A48   A(29,9,30)            105.3695         estimate D2E/DX2                !
 ! A49   A(9,10,11)            115.6422         estimate D2E/DX2                !
 ! A50   A(9,10,31)            108.3908         estimate D2E/DX2                !
 ! A51   A(9,10,32)            109.2774         estimate D2E/DX2                !
 ! A52   A(11,10,31)           109.5851         estimate D2E/DX2                !
 ! A53   A(11,10,32)           108.2243         estimate D2E/DX2                !
 ! A54   A(31,10,32)           105.2181         estimate D2E/DX2                !
 ! A55   A(10,11,12)           116.326          estimate D2E/DX2                !
 ! A56   A(10,11,33)           108.3869         estimate D2E/DX2                !
 ! A57   A(10,11,34)           108.8284         estimate D2E/DX2                !
 ! A58   A(12,11,33)           109.2587         estimate D2E/DX2                !
 ! A59   A(12,11,34)           108.0584         estimate D2E/DX2                !
 ! A60   A(33,11,34)           105.4425         estimate D2E/DX2                !
 ! A61   A(11,12,13)           113.2983         estimate D2E/DX2                !
 ! A62   A(11,12,35)           108.8746         estimate D2E/DX2                !
 ! A63   A(11,12,36)           111.2619         estimate D2E/DX2                !
 ! A64   A(13,12,35)           107.2739         estimate D2E/DX2                !
 ! A65   A(13,12,36)           108.8101         estimate D2E/DX2                !
 ! A66   A(35,12,36)           107.0602         estimate D2E/DX2                !
 ! A67   A(12,13,37)            96.8366         estimate D2E/DX2                !
 ! D1    D(14,1,2,3)            -0.2851         estimate D2E/DX2                !
 ! D2    D(14,1,2,17)         -179.9547         estimate D2E/DX2                !
 ! D3    D(15,1,2,3)          -120.7151         estimate D2E/DX2                !
 ! D4    D(15,1,2,17)           59.6152         estimate D2E/DX2                !
 ! D5    D(16,1,2,3)           120.1459         estimate D2E/DX2                !
 ! D6    D(16,1,2,17)          -59.5238         estimate D2E/DX2                !
 ! D7    D(1,2,3,4)            179.8543         estimate D2E/DX2                !
 ! D8    D(1,2,3,18)             0.7033         estimate D2E/DX2                !
 ! D9    D(17,2,3,4)            -0.4876         estimate D2E/DX2                !
 ! D10   D(17,2,3,18)         -179.6385         estimate D2E/DX2                !
 ! D11   D(2,3,4,5)            110.4058         estimate D2E/DX2                !
 ! D12   D(2,3,4,19)          -126.3205         estimate D2E/DX2                !
 ! D13   D(2,3,4,20)           -10.7859         estimate D2E/DX2                !
 ! D14   D(18,3,4,5)           -70.4208         estimate D2E/DX2                !
 ! D15   D(18,3,4,19)           52.8529         estimate D2E/DX2                !
 ! D16   D(18,3,4,20)          168.3874         estimate D2E/DX2                !
 ! D17   D(3,4,5,6)             60.7415         estimate D2E/DX2                !
 ! D18   D(3,4,5,21)          -175.895          estimate D2E/DX2                !
 ! D19   D(3,4,5,22)           -61.1719         estimate D2E/DX2                !
 ! D20   D(19,4,5,6)           -61.6166         estimate D2E/DX2                !
 ! D21   D(19,4,5,21)           61.7469         estimate D2E/DX2                !
 ! D22   D(19,4,5,22)          176.47           estimate D2E/DX2                !
 ! D23   D(20,4,5,6)          -177.0558         estimate D2E/DX2                !
 ! D24   D(20,4,5,21)          -53.6923         estimate D2E/DX2                !
 ! D25   D(20,4,5,22)           61.0308         estimate D2E/DX2                !
 ! D26   D(4,5,6,7)             58.374          estimate D2E/DX2                !
 ! D27   D(4,5,6,23)          -178.5244         estimate D2E/DX2                !
 ! D28   D(4,5,6,24)           -64.1766         estimate D2E/DX2                !
 ! D29   D(21,5,6,7)           -64.5522         estimate D2E/DX2                !
 ! D30   D(21,5,6,23)           58.5493         estimate D2E/DX2                !
 ! D31   D(21,5,6,24)          172.8972         estimate D2E/DX2                !
 ! D32   D(22,5,6,7)          -179.3009         estimate D2E/DX2                !
 ! D33   D(22,5,6,23)          -56.1993         estimate D2E/DX2                !
 ! D34   D(22,5,6,24)           58.1485         estimate D2E/DX2                !
 ! D35   D(5,6,7,8)             58.41           estimate D2E/DX2                !
 ! D36   D(5,6,7,25)          -178.6245         estimate D2E/DX2                !
 ! D37   D(5,6,7,26)           -64.2404         estimate D2E/DX2                !
 ! D38   D(23,6,7,8)           -64.1409         estimate D2E/DX2                !
 ! D39   D(23,6,7,25)           58.8246         estimate D2E/DX2                !
 ! D40   D(23,6,7,26)          173.2086         estimate D2E/DX2                !
 ! D41   D(24,6,7,8)          -178.5157         estimate D2E/DX2                !
 ! D42   D(24,6,7,25)          -55.5502         estimate D2E/DX2                !
 ! D43   D(24,6,7,26)           58.8338         estimate D2E/DX2                !
 ! D44   D(6,7,8,9)             57.4604         estimate D2E/DX2                !
 ! D45   D(6,7,8,27)          -179.5356         estimate D2E/DX2                !
 ! D46   D(6,7,8,28)           -65.0919         estimate D2E/DX2                !
 ! D47   D(25,7,8,9)           -64.9895         estimate D2E/DX2                !
 ! D48   D(25,7,8,27)           58.0145         estimate D2E/DX2                !
 ! D49   D(25,7,8,28)          172.4582         estimate D2E/DX2                !
 ! D50   D(26,7,8,9)          -179.3761         estimate D2E/DX2                !
 ! D51   D(26,7,8,27)          -56.3721         estimate D2E/DX2                !
 ! D52   D(26,7,8,28)           58.0716         estimate D2E/DX2                !
 ! D53   D(7,8,9,10)            57.2434         estimate D2E/DX2                !
 ! D54   D(7,8,9,29)          -179.5992         estimate D2E/DX2                !
 ! D55   D(7,8,9,30)           -65.238          estimate D2E/DX2                !
 ! D56   D(27,8,9,10)          -65.2644         estimate D2E/DX2                !
 ! D57   D(27,8,9,29)           57.8929         estimate D2E/DX2                !
 ! D58   D(27,8,9,30)          172.2541         estimate D2E/DX2                !
 ! D59   D(28,8,9,10)         -179.7174         estimate D2E/DX2                !
 ! D60   D(28,8,9,29)          -56.5601         estimate D2E/DX2                !
 ! D61   D(28,8,9,30)           57.8011         estimate D2E/DX2                !
 ! D62   D(8,9,10,11)           57.5724         estimate D2E/DX2                !
 ! D63   D(8,9,10,31)         -178.9619         estimate D2E/DX2                !
 ! D64   D(8,9,10,32)          -64.7986         estimate D2E/DX2                !
 ! D65   D(29,9,10,11)         -65.0819         estimate D2E/DX2                !
 ! D66   D(29,9,10,31)          58.3838         estimate D2E/DX2                !
 ! D67   D(29,9,10,32)         172.5471         estimate D2E/DX2                !
 ! D68   D(30,9,10,11)        -179.4443         estimate D2E/DX2                !
 ! D69   D(30,9,10,31)         -55.9786         estimate D2E/DX2                !
 ! D70   D(30,9,10,32)          58.1846         estimate D2E/DX2                !
 ! D71   D(9,10,11,12)          56.4954         estimate D2E/DX2                !
 ! D72   D(9,10,11,33)        -179.9817         estimate D2E/DX2                !
 ! D73   D(9,10,11,34)         -65.7892         estimate D2E/DX2                !
 ! D74   D(31,10,11,12)        -66.3411         estimate D2E/DX2                !
 ! D75   D(31,10,11,33)         57.1818         estimate D2E/DX2                !
 ! D76   D(31,10,11,34)        171.3742         estimate D2E/DX2                !
 ! D77   D(32,10,11,12)        179.4243         estimate D2E/DX2                !
 ! D78   D(32,10,11,33)        -57.0528         estimate D2E/DX2                !
 ! D79   D(32,10,11,34)         57.1397         estimate D2E/DX2                !
 ! D80   D(10,11,12,13)         63.9913         estimate D2E/DX2                !
 ! D81   D(10,11,12,35)       -176.7404         estimate D2E/DX2                !
 ! D82   D(10,11,12,36)        -58.9832         estimate D2E/DX2                !
 ! D83   D(33,11,12,13)        -59.0791         estimate D2E/DX2                !
 ! D84   D(33,11,12,35)         60.1891         estimate D2E/DX2                !
 ! D85   D(33,11,12,36)        177.9464         estimate D2E/DX2                !
 ! D86   D(34,11,12,13)       -173.3207         estimate D2E/DX2                !
 ! D87   D(34,11,12,35)        -54.0525         estimate D2E/DX2                !
 ! D88   D(34,11,12,36)         63.7048         estimate D2E/DX2                !
 ! D89   D(11,12,13,37)        -68.3675         estimate D2E/DX2                !
 ! D90   D(35,12,13,37)        171.4492         estimate D2E/DX2                !
 ! D91   D(36,12,13,37)         55.9505         estimate D2E/DX2                !
 --------------------------------------------------------------------------------
 Trust Radius=3.00D-01 FncErr=1.00D-07 GrdErr=1.00D-06 EigMax=2.50D+02 EigMin=1.00D-04
 Number of steps in this run=    204 maximum allowed number of steps=    222.
 GradGradGradGradGradGradGradGradGradGradGradGradGradGradGradGradGradGrad

                          Input orientation:                          
 ---------------------------------------------------------------------
 Center     Atomic      Atomic             Coordinates (Angstroms)
 Number     Number       Type             X           Y           Z
 ---------------------------------------------------------------------
      1          6           0        1.060600    0.006050    0.079310
      2          6           0        0.794460    1.414370    0.501530
      3          6           0       -0.164110    2.187390   -0.031730
      4          6           0       -0.434620    3.603000    0.394470
      5          6           0       -0.051510    4.638880   -0.668190
      6          6           0       -0.788430    4.522130   -2.008040
      7          6           0       -2.315330    4.621980   -1.933750
      8          6           0       -2.863410    5.916080   -1.323400
      9          6           0       -2.424910    7.210920   -2.015720
     10          6           0       -2.762070    7.310570   -3.507130
     11          6           0       -4.247750    7.171220   -3.862590
     12          6           0       -5.202840    8.152450   -3.181880
     13         16           0       -4.905940    9.883620   -3.646470
     14          1           0        0.380520   -0.325000   -0.711860
     15          1           0        0.943590   -0.667280    0.933890
     16          1           0        2.085940   -0.083780   -0.292160
     17          1           0        1.435750    1.810010    1.286180
     18          1           0       -0.805530    1.782800   -0.812050
     19          1           0       -1.494360    3.696780    0.656450
     20          1           0        0.122420    3.831500    1.312050
     21          1           0       -0.210530    5.640610   -0.251800
     22          1           0        1.026170    4.564020   -0.864380
     23          1           0       -0.405400    5.298240   -2.681210
     24          1           0       -0.527340    3.569410   -2.484500
     25          1           0       -2.718610    4.499430   -2.945980
     26          1           0       -2.708180    3.774450   -1.359650
     27          1           0       -3.958510    5.859770   -1.320160
     28          1           0       -2.570570    5.971710   -0.268120
     29          1           0       -2.874760    8.057640   -1.483830
     30          1           0       -1.341900    7.335840   -1.897740
     31          1           0       -2.382070    8.267210   -3.884490
     32          1           0       -2.204480    6.542480   -4.056480
     33          1           0       -4.353040    7.260020   -4.951820
     34          1           0       -4.575920    6.153280   -3.619480
     35          1           0       -6.229460    7.908590   -3.474940
     36          1           0       -5.150820    8.065680   -2.092790
     37          1           0       -3.719000   10.011380   -3.036050
 ---------------------------------------------------------------------
                    Distance matrix (angstroms):
                    1          2          3          4          5
     1  C    0.000000
     2  C    1.494144   0.000000
     3  C    2.504094   1.341932   0.000000
     4  C    3.908076   2.512409   1.502922   0.000000
     5  C    4.822723   3.532899   2.535264   1.532667   0.000000
     6  C    5.307629   4.296703   3.121953   2.596543   1.533584
     7  C    6.062683   5.088236   3.764659   3.161645   2.593609
     8  C    7.231452   6.080771   4.780979   3.768347   3.157107
     9  C    8.273336   7.092312   5.855193   4.773610   3.750234
    10  C    8.990627   7.967649   6.713775   5.863922   4.748120
    11  C    9.749709   8.809696   7.496010   6.737560   5.850245
    12  C   10.780996   9.743554   8.419869   7.498246   6.723095
    13  S   12.126311  11.019467   9.735669   8.704487   7.742283
    14  H    1.094556   2.160803   2.659192   4.161442   4.982837
    15  H    1.094245   2.131300   3.210695   4.519483   5.631360
    16  H    1.094249   2.131271   3.207610   4.518521   5.197462
    17  H    2.202622   1.087869   2.106859   2.740117   3.746199
    18  H    2.726500   2.102665   1.088123   2.215038   2.957437
    19  H    4.525748   3.236061   2.126362   1.095663   2.173486
    20  H    4.127214   2.636493   2.142648   1.097478   2.145569
    21  H    5.785644   4.408925   3.460537   2.149357   1.096417
    22  H    4.654764   3.440886   2.785398   2.154570   1.097948
    23  H    6.146292   5.162746   4.093330   3.512051   2.147613
    24  H    4.668213   3.912509   2.838661   2.880659   2.160824
    25  H    6.604943   5.809009   4.512633   4.144732   3.510156
    26  H    5.520430   4.615458   3.279394   2.876701   2.878064
    27  H    7.836837   6.758022   5.435430   4.522252   4.144911
    28  H    6.992510   5.717092   4.490881   3.257621   2.877873
    29  H    9.097174   7.844607   6.626919   5.415359   4.508207
    30  H    7.962823   6.736790   5.601403   4.473419   3.232722
    31  H    9.788281   8.734353   7.531754   6.622455   5.379672
    32  H    8.395858   7.487764   6.271246   5.619956   4.442914
    33  H   10.355667   9.508281   8.214986   7.570378   6.612339
    34  H    9.123587   8.263230   6.932842   6.306036   5.610152
    35  H   11.323772  10.359665   9.020881   8.190886   7.532325
    36  H   10.404681   9.290682   7.979319   6.953022   6.306775
    37  H   11.517668  10.334136   9.103736   7.976400   6.922500
                    6          7          8          9         10
     6  C    0.000000
     7  C    1.531964   0.000000
     8  C    2.591789   1.532192   0.000000
     9  C    3.147653   2.592554   1.532384   0.000000
    10  C    3.730673   3.147001   2.592981   1.532289   0.000000
    11  C    4.735391   3.735411   3.152659   2.595236   1.533954
    12  C    5.834736   4.728611   3.732055   3.156470   2.602289
    13  S    6.955855   6.109789   5.030900   3.994769   3.352041
    14  H    5.151815   5.764827   7.060322   8.146200   8.717301
    15  H    6.211668   6.842528   7.932795   9.061624   9.853967
    16  H    5.693914   6.649073   7.845881   8.748204   9.408275
    17  H    4.811908   5.687330   6.492495   7.414652   8.417462
    18  H    2.989082   3.405679   4.645466   5.791002   6.453507
    19  H    2.877333   2.870387   3.274049   4.511718   5.657028
    20  H    3.511355   4.135541   4.495136   5.383625   6.606717
    21  H    2.160867   2.880407   2.874366   3.237401   4.460526
    22  H    2.145341   3.508922   4.143380   4.499068   5.373865
    23  H    1.096456   2.159596   2.875272   2.860007   3.207103
    24  H    1.096749   2.146657   3.508880   4.132931   4.476167
    25  H    2.146122   1.096477   2.158849   2.881635   2.866930
    26  H    2.159832   1.096462   2.147554   3.509985   4.137477
    27  H    3.508827   2.146778   1.096552   2.159013   2.884290
    28  H    2.881775   2.158991   1.096570   2.147316   3.510043
    29  H    4.138526   3.509865   2.147591   1.096452   2.159758
    30  H    2.869749   2.883383   2.158837   1.096556   2.146545
    31  H    4.481783   4.134917   3.509798   2.147064   1.096340
    32  H    3.206730   2.864715   2.880328   2.158727   1.096656
    33  H    5.372925   4.496695   4.146155   3.512945   2.149621
    34  H    4.427468   3.208868   2.874185   2.884006   2.154529
    35  H    6.574551   5.338304   4.464248   4.134086   3.518730
    36  H    5.620887   4.463672   3.231870   2.857821   2.876921
    37  H    6.306894   5.677234   4.520695   3.249357   2.903792
                   11         12         13         14         15
    11  C    0.000000
    12  C    1.529175   0.000000
    13  S    2.799471   1.816850   0.000000
    14  H    9.356351  10.447108  11.864844   0.000000
    15  H   10.554540  11.511116  12.904193   1.772765   0.000000
    16  H   10.271252  11.371556  12.628810   1.772792   1.774439
    17  H    9.357060  10.210827  11.389963   3.108688   2.550156
    18  H    7.084472   8.094743   9.511603   2.420656   3.480032
    19  H    6.330451   6.952596   8.272302   4.643507   5.006555
    20  H    7.551756   8.199049   9.300510   4.630261   4.588719
    21  H    5.628474   6.310140   7.181490   6.012445   6.521298
    22  H    6.603104   7.553026   8.439674   4.933826   5.532368
    23  H    4.434790   5.604696   6.497099   6.009729   7.104657
    24  H    5.358509   6.584140   7.771201   4.374116   5.639022
    25  H    3.211994   4.423980   5.853597   6.153944   7.426977
    26  H    4.491440   5.358240   6.883433   5.173508   6.190696
    27  H    2.875328   3.204800   4.743491   7.579485   8.468395
    28  H    4.143908   4.491600   5.671882   6.968098   7.607256
    29  H    2.886060   2.883109   3.483806   9.025599   9.825955
    30  H    3.511652   4.150027   4.717162   7.941128   8.791560
    31  H    2.163894   2.909222   3.006552   9.566795  10.681850
    32  H    2.146593   3.513843   4.316157   8.064179   9.316371
    33  H    1.097904   2.156682   2.982099   9.895271  11.204372
    34  H    1.096814   2.140375   3.745007   8.659599   9.885252
    35  H    2.149689   1.095126   2.383668  10.914140  12.018152
    36  H    2.178942   1.093779   2.403912  10.144269  11.071008
    37  H    3.004872   2.382996   1.340806  11.359959  12.309913
                   16         17         18         19         20
    16  H    0.000000
    17  H    2.549577   0.000000
    18  H    3.480662   3.070284   0.000000
    19  H    5.292546   3.541469   2.508844   0.000000
    20  H    4.664581   2.410794   3.093552   1.749840   0.000000
    21  H    6.167985   4.443998   3.943425   2.500322   2.414407
    22  H    4.801312   3.518129   3.330623   3.068892   2.467832
    23  H    6.393784   5.594441   4.001522   3.858819   4.286729
    24  H    4.998138   4.600787   2.463017   3.288908   3.860657
    25  H    7.150684   6.511748   3.948875   3.888513   5.162209
    26  H    6.245723   5.294487   2.808311   2.354581   3.892754
    27  H    8.539201   7.231293   5.178913   3.828518   5.262737
    28  H    7.638889   5.982156   4.578012   2.681112   3.785450
    29  H    9.607879   8.079996   6.641281   5.050089   5.887299
    30  H    8.329390   6.956111   5.683544   4.448583   4.972664
    31  H   10.129510   9.110818   7.346628   6.503614   7.276814
    32  H    8.745578   8.011964   5.927726   5.551035   6.448643
    33  H   10.821474  10.105708   7.728031   7.233355   8.427370
    34  H    9.713514   8.892113   6.418614   5.814979   7.196183
    35  H   11.964696  10.891115   8.604377   7.564978   8.937803
    36  H   11.046568   9.691943   7.745736   6.325765   7.571544
    37  H   11.964051  10.607337   9.007997   7.645767   8.476638
                   21         22         23         24         25
    21  H    0.000000
    22  H    1.750351   0.000000
    23  H    2.461143   2.426797   0.000000
    24  H    3.061893   2.455083   1.744253   0.000000
    25  H    3.853747   4.284928   2.461532   2.424781   0.000000
    26  H    3.308797   3.848907   3.061250   2.462396   1.744175
    27  H    3.903432   5.170468   3.846084   4.286533   2.455844
    28  H    2.383208   3.908152   3.311273   3.854630   3.059487
    29  H    3.802375   5.273173   3.891754   5.162938   3.850081
    30  H    2.619718   3.789271   2.375431   3.897921   3.322553
    31  H    4.981069   5.869479   3.764291   5.241118   3.897464
    32  H    4.389168   4.953878   2.583832   3.758067   2.381511
    33  H    6.470940   7.274028   4.958640   5.860397   3.783598
    34  H    5.537213   6.442029   4.359436   4.935136   2.576514
    35  H    7.194434   8.405078   6.431455   7.233507   4.922219
    36  H    5.803161   7.205957   5.524851   6.461149   4.400195
    37  H    6.258198   7.543641   5.772308   7.210401   5.602721
                   26         27         28         29         30
    26  H    0.000000
    27  H    2.431757   0.000000
    28  H    2.457301   1.745192   0.000000
    29  H    4.288226   2.456000   2.433431   0.000000
    30  H    3.852241   3.059253   2.454820   1.744126   0.000000
    31  H    5.163919   3.854441   4.287538   2.459641   2.428287
    32  H    3.897255   3.321169   3.848567   3.059986   2.456343
    33  H    5.268629   3.912200   5.174359   3.853370   4.289536
    34  H    3.775462   2.398795   3.909733   3.328894   3.849899
    35  H    5.827948   3.741384   5.236666   3.903940   5.167576
    36  H    4.991857   2.623852   3.791018   2.356129   3.883115
    37  H    6.536924   4.498612   5.029837   2.634241   3.755645
                   31         32         33         34         35
    31  H    0.000000
    32  H    1.742358   0.000000
    33  H    2.457305   2.435736   0.000000
    34  H    3.058089   2.442575   1.746333   0.000000
    35  H    3.885711   4.290094   2.474423   2.415823   0.000000
    36  H    3.304055   3.854496   3.075645   2.513676   1.760250
    37  H    2.355708   3.920244   3.412061   3.994952   3.304052
                   36         37
    36  H    0.000000
    37  H    2.593375   0.000000
 Stoichiometry    C12H24S
 Framework group  C1[X(C12H24S)]
 Deg. of freedom   105
 Full point group                 C1      NOp   1
 Largest Abelian subgroup         C1      NOp   1
 Largest concise Abelian subgroup C1      NOp   1
                         Standard orientation:                         
 ---------------------------------------------------------------------
 Center     Atomic      Atomic             Coordinates (Angstroms)
 Number     Number       Type             X           Y           Z
 ---------------------------------------------------------------------
      1          6           0        6.574160    0.860928    0.113221
      2          6           0        5.525940   -0.165322   -0.170524
      3          6           0        4.227923    0.121297   -0.354333
      4          6           0        3.173356   -0.909914   -0.642894
      5          6           0        2.193266   -1.114665    0.517523
      6          6           0        1.382356    0.119930    0.929930
      7          6           0        0.519352    0.742545   -0.172107
      8          6           0       -0.522040   -0.189100   -0.800718
      9          6           0       -1.528691   -0.808848    0.174355
     10          6           0       -2.347002    0.187445    1.002412
     11          6           0       -3.169217    1.201970    0.197602
     12          6           0       -4.164744    0.622620   -0.808208
     13         16           0       -5.491169   -0.345150   -0.030417
     14          1           0        6.162798    1.874608    0.149115
     15          1           0        7.343567    0.832100   -0.664310
     16          1           0        7.049551    0.651111    1.076217
     17          1           0        5.865260   -1.197745   -0.219750
     18          1           0        3.896939    1.156889   -0.309506
     19          1           0        2.635283   -0.620186   -1.552296
     20          1           0        3.644291   -1.875345   -0.867886
     21          1           0        1.507651   -1.929055    0.255166
     22          1           0        2.751437   -1.464699    1.395823
     23          1           0        0.745736   -0.153543    1.779721
     24          1           0        2.062739    0.890337    1.312565
     25          1           0        0.014666    1.623715    0.241529
     26          1           0        1.167370    1.126011   -0.969137
     27          1           0       -1.063100    0.369279   -1.573954
     28          1           0       -0.009466   -1.000588   -1.331021
     29          1           0       -2.208779   -1.454574   -0.393735
     30          1           0       -1.000245   -1.478278    0.863589
     31          1           0       -3.010178   -0.378067    1.667509
     32          1           0       -1.675446    0.741888    1.668939
     33          1           0       -3.703699    1.851875    0.902829
     34          1           0       -2.482649    1.862686   -0.345609
     35          1           0       -4.639166    1.446476   -1.351794
     36          1           0       -3.660300   -0.002990   -1.550167
     37          1           0       -4.723520   -1.362824    0.385295
 ---------------------------------------------------------------------
 Rotational constants (GHZ):           2.6165390           0.1631568           0.1612694
 Standard basis: 6-31G(d) (6D, 7F)
 There are   247 symmetry adapted cartesian basis functions of A   symmetry.
 There are   247 symmetry adapted basis functions of A   symmetry.
   247 basis functions,   484 primitive gaussians,   247 cartesian basis functions
    56 alpha electrons       56 beta electrons
       nuclear repulsion energy       874.3692029785 Hartrees.
 NAtoms=   37 NActive=   37 NUniq=   37 SFac= 1.00D+00 NAtFMM=   60 NAOKFM=F Big=F
 Integral buffers will be    131072 words long.
 Raffenetti 2 integral format.
 Two-electron integral symmetry is turned on.
 Nuclear repulsion after empirical dispersion term =      874.3057403897 Hartrees.
 One-electron integrals computed using PRISM.
 NBasis=   247 RedAO= T EigKep=  2.99D-03  NBF=   247
 NBsUse=   247 1.00D-06 EigRej= -1.00D+00 NBFU=   247
 ExpMin= 1.17D-01 ExpMax= 2.19D+04 ExpMxC= 3.30D+03 IAcc=3 IRadAn=         5 AccDes= 0.00D+00
 Harris functional with IExCor=  402 and IRadAn=       5 diagonalized for initial guess.
 HarFok:  IExCor=  402 AccDes= 0.00D+00 IRadAn=         5 IDoV= 1 UseB2=F ITyADJ=14
 ICtDFT=  3500011 ScaDFX=  1.000000  1.000000  1.000000  1.000000
 FoFCou: FMM=F IPFlag=           0 FMFlag=      100000 FMFlg1=           0
         NFxFlg=           0 DoJE=T BraDBF=F KetDBF=T FulRan=T
         wScrn=  0.000000 ICntrl=       500 IOpCl=  0 I1Cent=   200000004 NGrid=           0
         NMat0=    1 NMatS0=      1 NMatT0=    0 NMatD0=    1 NMtDS0=    0 NMtDT0=    0
 Petite list used in FoFCou.
 Requested convergence on RMS density matrix=1.00D-08 within  32 cycles.
 Requested convergence on MAX density matrix=1.00D-06.
 Requested convergence on             energy=1.00D-06.
 No special actions if energy rises.
 Integral accuracy reduced to 1.0D-05 until final iterations.
 Initial convergence to 1.0D-05 achieved.  Increase integral accuracy.
 SCF Done:  E(RB3LYP) =  -869.971366270     A.U. after   13 cycles
            NFock= 13  Conv=0.97D-08     -V/T= 2.0069
 QCSCF skips out because SCF is already converged.

 **********************************************************************

            Population analysis using the SCF density.

 **********************************************************************

 Orbital symmetries:
       Occupied  (A) (A) (A) (A) (A) (A) (A) (A) (A) (A) (A) (A)
                 (A) (A) (A) (A) (A) (A) (A) (A) (A) (A) (A) (A)
                 (A) (A) (A) (A) (A) (A) (A) (A) (A) (A) (A) (A)
                 (A) (A) (A) (A) (A) (A) (A) (A) (A) (A) (A) (A)
                 (A) (A) (A) (A) (A) (A) (A) (A)
       Virtual   (A) (A) (A) (A) (A) (A) (A) (A) (A) (A) (A) (A)
                 (A) (A) (A) (A) (A) (A) (A) (A) (A) (A) (A) (A)
                 (A) (A) (A) (A) (A) (A) (A) (A) (A) (A) (A) (A)
                 (A) (A) (A) (A) (A) (A) (A) (A) (A) (A) (A) (A)
                 (A) (A) (A) (A) (A) (A) (A) (A) (A) (A) (A) (A)
                 (A) (A) (A) (A) (A) (A) (A) (A) (A) (A) (A) (A)
                 (A) (A) (A) (A) (A) (A) (A) (A) (A) (A) (A) (A)
                 (A) (A) (A) (A) (A) (A) (A) (A) (A) (A) (A) (A)
                 (A) (A) (A) (A) (A) (A) (A) (A) (A) (A) (A) (A)
                 (A) (A) (A) (A) (A) (A) (A) (A) (A) (A) (A) (A)
                 (A) (A) (A) (A) (A) (A) (A) (A) (A) (A) (A) (A)
                 (A) (A) (A) (A) (A) (A) (A) (A) (A) (A) (A) (A)
                 (A) (A) (A) (A) (A) (A) (A) (A) (A) (A) (A) (A)
                 (A) (A) (A) (A) (A) (A) (A) (A) (A) (A) (A) (A)
                 (A) (A) (A) (A) (A) (A) (A) (A) (A) (A) (A) (A)
                 (A) (A) (A) (A) (A) (A) (A) (A) (A) (A) (A)
 The electronic state is 1-A.
 Alpha  occ. eigenvalues --  -88.86732 -10.21608 -10.18624 -10.18077 -10.18045
 Alpha  occ. eigenvalues --  -10.17992 -10.17918 -10.17874 -10.17750 -10.17702
 Alpha  occ. eigenvalues --  -10.17677 -10.17600 -10.17596  -7.93132  -5.89625
 Alpha  occ. eigenvalues --   -5.89265  -5.88563  -0.82393  -0.81037  -0.79078
 Alpha  occ. eigenvalues --   -0.76632  -0.73783  -0.70873  -0.68272  -0.65759
 Alpha  occ. eigenvalues --   -0.63021  -0.59819  -0.56553  -0.54399  -0.52835
 Alpha  occ. eigenvalues --   -0.48720  -0.48170  -0.46235  -0.45356  -0.43858
 Alpha  occ. eigenvalues --   -0.42927  -0.41732  -0.41360  -0.41080  -0.40672
 Alpha  occ. eigenvalues --   -0.39218  -0.38455  -0.37482  -0.36510  -0.36295
 Alpha  occ. eigenvalues --   -0.35132  -0.34596  -0.33268  -0.32703  -0.32402
 Alpha  occ. eigenvalues --   -0.31943  -0.30936  -0.30467  -0.30229  -0.23539
 Alpha  occ. eigenvalues --   -0.23278
 Alpha virt. eigenvalues --    0.02760   0.03188   0.06807   0.07578   0.10046
 Alpha virt. eigenvalues --    0.10150   0.10791   0.11615   0.12202   0.12702
 Alpha virt. eigenvalues --    0.13673   0.14624   0.15468   0.16298   0.17303
 Alpha virt. eigenvalues --    0.17399   0.17620   0.18193   0.18565   0.19272
 Alpha virt. eigenvalues --    0.20034   0.20770   0.21158   0.21494   0.21742
 Alpha virt. eigenvalues --    0.22385   0.23271   0.23555   0.24150   0.24430
 Alpha virt. eigenvalues --    0.24957   0.25816   0.26467   0.28646   0.31688
 Alpha virt. eigenvalues --    0.35067   0.36297   0.37100   0.39467   0.42104
 Alpha virt. eigenvalues --    0.42499   0.49119   0.50454   0.50657   0.51592
 Alpha virt. eigenvalues --    0.53172   0.53531   0.53846   0.54513   0.55372
 Alpha virt. eigenvalues --    0.56963   0.58565   0.60007   0.60470   0.61414
 Alpha virt. eigenvalues --    0.63860   0.64151   0.64565   0.64900   0.67402
 Alpha virt. eigenvalues --    0.68038   0.69517   0.70835   0.71258   0.72568
 Alpha virt. eigenvalues --    0.73374   0.74031   0.74961   0.76193   0.77334
 Alpha virt. eigenvalues --    0.78280   0.78527   0.79567   0.82532   0.84173
 Alpha virt. eigenvalues --    0.84387   0.85475   0.86111   0.87259   0.87823
 Alpha virt. eigenvalues --    0.88594   0.89501   0.89769   0.89789   0.91278
 Alpha virt. eigenvalues --    0.92389   0.92804   0.93117   0.93805   0.94937
 Alpha virt. eigenvalues --    0.95830   0.96265   0.96831   0.98013   0.99019
 Alpha virt. eigenvalues --    0.99251   1.00204   1.01849   1.02717   1.04469
 Alpha virt. eigenvalues --    1.04929   1.05890   1.08409   1.10213   1.14163
 Alpha virt. eigenvalues --    1.15508   1.16532   1.18150   1.22523   1.25729
 Alpha virt. eigenvalues --    1.28990   1.35370   1.39297   1.41860   1.44007
 Alpha virt. eigenvalues --    1.47331   1.47996   1.54671   1.55436   1.58142
 Alpha virt. eigenvalues --    1.61489   1.62103   1.63900   1.66227   1.69620
 Alpha virt. eigenvalues --    1.73784   1.75239   1.77145   1.78335   1.80548
 Alpha virt. eigenvalues --    1.81767   1.84550   1.86110   1.90534   1.92688
 Alpha virt. eigenvalues --    1.93596   1.95872   1.96415   1.97064   1.99927
 Alpha virt. eigenvalues --    2.01170   2.01417   2.03387   2.05285   2.06204
 Alpha virt. eigenvalues --    2.07675   2.13512   2.14166   2.19597   2.21266
 Alpha virt. eigenvalues --    2.23592   2.24731   2.27706   2.27888   2.28877
 Alpha virt. eigenvalues --    2.31356   2.32771   2.35038   2.36718   2.38161
 Alpha virt. eigenvalues --    2.41438   2.42894   2.43875   2.46376   2.47306
 Alpha virt. eigenvalues --    2.47758   2.48955   2.55698   2.57152   2.62893
 Alpha virt. eigenvalues --    2.66338   2.67803   2.71022   2.73420   2.73993
 Alpha virt. eigenvalues --    2.76085   2.85211   2.95449   3.91274   4.09869
 Alpha virt. eigenvalues --    4.12544   4.15440   4.21436   4.28092   4.33669
 Alpha virt. eigenvalues --    4.40949   4.45981   4.48028   4.48492   4.52774
 Alpha virt. eigenvalues --    4.59058
          Condensed to atoms (all electrons):
               1          2          3          4          5          6
     1  C    5.096609   0.369990  -0.028271   0.005686  -0.000112   0.000007
     2  C    0.369990   4.831060   0.708545  -0.025199  -0.003115  -0.000132
     3  C   -0.028271   0.708545   4.840679   0.381594  -0.049383  -0.005085
     4  C    0.005686  -0.025199   0.381594   5.040411   0.364726  -0.045865
     5  C   -0.000112  -0.003115  -0.049383   0.364726   5.032573   0.380279
     6  C    0.000007  -0.000132  -0.005085  -0.045865   0.380279   5.014057
     7  C   -0.000000   0.000046  -0.001651  -0.002473  -0.046835   0.377430
     8  C    0.000000  -0.000001   0.000117  -0.002257  -0.001939  -0.046076
     9  C   -0.000000   0.000000  -0.000003   0.000143  -0.002446  -0.002172
    10  C    0.000000  -0.000000   0.000000  -0.000004   0.000164  -0.002657
    11  C   -0.000000  -0.000000  -0.000000   0.000000  -0.000004   0.000173
    12  C    0.000000   0.000000   0.000000  -0.000000   0.000000  -0.000004
    13  S   -0.000000   0.000000   0.000000   0.000000  -0.000000   0.000000
    14  H    0.374733  -0.035120  -0.006090   0.000115  -0.000003  -0.000002
    15  H    0.368083  -0.033413  -0.000831  -0.000214  -0.000005  -0.000000
    16  H    0.367453  -0.032775  -0.000802  -0.000130   0.000023   0.000001
    17  H   -0.058918   0.364833  -0.044857  -0.011758   0.000189   0.000017
    18  H   -0.011901  -0.046185   0.361594  -0.055730  -0.002065   0.002069
    19  H   -0.000227   0.001127  -0.036086   0.365577  -0.042861  -0.007670
    20  H    0.000187  -0.007001  -0.040567   0.368975  -0.032475   0.005121
    21  H    0.000003   0.000037   0.005530  -0.036003   0.363065  -0.038524
    22  H   -0.000082   0.002187  -0.002432  -0.039204   0.367616  -0.035345
    23  H   -0.000000  -0.000012  -0.000030   0.005241  -0.035902   0.372241
    24  H    0.000009   0.000419   0.007407  -0.008118  -0.039230   0.370143
    25  H   -0.000000   0.000000   0.000013  -0.000009   0.005312  -0.036053
    26  H   -0.000001  -0.000009  -0.000077   0.003948  -0.007715  -0.038809
    27  H    0.000000  -0.000000  -0.000002   0.000020  -0.000034   0.005291
    28  H   -0.000000   0.000000   0.000021   0.000178   0.003978  -0.007483
    29  H    0.000000  -0.000000   0.000000  -0.000001   0.000025  -0.000022
    30  H    0.000000   0.000000   0.000000   0.000003   0.000037   0.004105
    31  H   -0.000000   0.000000  -0.000000   0.000000  -0.000002   0.000028
    32  H   -0.000000  -0.000000   0.000000   0.000000   0.000002   0.000070
    33  H    0.000000  -0.000000   0.000000  -0.000000   0.000000  -0.000002
    34  H   -0.000000   0.000000   0.000000   0.000000   0.000001  -0.000002
    35  H   -0.000000  -0.000000  -0.000000   0.000000  -0.000000   0.000000
    36  H   -0.000000  -0.000000   0.000000   0.000000   0.000000   0.000000
    37  H    0.000000  -0.000000   0.000000  -0.000000   0.000000   0.000000
               7          8          9         10         11         12
     1  C   -0.000000   0.000000  -0.000000   0.000000  -0.000000   0.000000
     2  C    0.000046  -0.000001   0.000000  -0.000000  -0.000000   0.000000
     3  C   -0.001651   0.000117  -0.000003   0.000000  -0.000000   0.000000
     4  C   -0.002473  -0.002257   0.000143  -0.000004   0.000000  -0.000000
     5  C   -0.046835  -0.001939  -0.002446   0.000164  -0.000004   0.000000
     6  C    0.377430  -0.046076  -0.002172  -0.002657   0.000173  -0.000004
     7  C    5.015803   0.377282  -0.045706  -0.002043  -0.002606   0.000161
     8  C    0.377282   5.016701   0.375382  -0.046248  -0.001901  -0.002284
     9  C   -0.045706   0.375382   5.023945   0.374964  -0.046108  -0.004457
    10  C   -0.002043  -0.046248   0.374964   5.020200   0.382491  -0.044235
    11  C   -0.002606  -0.001901  -0.046108   0.382491   5.054509   0.344820
    12  C    0.000161  -0.002284  -0.004457  -0.044235   0.344820   5.208794
    13  S   -0.000011   0.000239  -0.002303  -0.009706  -0.061338   0.266347
    14  H   -0.000000   0.000000  -0.000000  -0.000000  -0.000000   0.000000
    15  H    0.000000  -0.000000   0.000000  -0.000000  -0.000000   0.000000
    16  H   -0.000000  -0.000000   0.000000  -0.000000   0.000000  -0.000000
    17  H   -0.000001   0.000000  -0.000000  -0.000000   0.000000  -0.000000
    18  H    0.000161  -0.000005   0.000000   0.000000   0.000000  -0.000000
    19  H    0.003950  -0.000088   0.000008   0.000000   0.000000   0.000000
    20  H   -0.000009   0.000023  -0.000001   0.000000  -0.000000   0.000000
    21  H   -0.007796   0.004033  -0.000113   0.000009   0.000000   0.000000
    22  H    0.005362  -0.000040   0.000029  -0.000002   0.000000  -0.000000
    23  H   -0.039390  -0.008013   0.004304  -0.000118   0.000009   0.000000
    24  H   -0.036311   0.005369  -0.000039   0.000034  -0.000002   0.000000
    25  H    0.371238  -0.039512  -0.007749   0.004314  -0.000245   0.000007
    26  H    0.371786  -0.036486   0.005363  -0.000035   0.000035  -0.000002
    27  H   -0.036198   0.370506  -0.039549  -0.007816   0.004260  -0.000016
    28  H   -0.038650   0.372045  -0.036075   0.005292  -0.000057   0.000027
    29  H    0.005325  -0.036594   0.369650  -0.039809  -0.008116   0.004490
    30  H   -0.007469  -0.038552   0.373217  -0.035726   0.005337  -0.000014
    31  H   -0.000025   0.005277  -0.037371   0.369281  -0.039933  -0.005725
    32  H    0.004098  -0.007566  -0.038370   0.374161  -0.035532   0.005308
    33  H    0.000026  -0.000034   0.005123  -0.033358   0.376330  -0.042096
    34  H    0.000035   0.003782  -0.007565  -0.038697   0.358078  -0.035021
    35  H   -0.000001   0.000003   0.000031   0.004375  -0.032445   0.375571
    36  H    0.000006  -0.000139   0.004933  -0.007209  -0.042527   0.367123
    37  H    0.000000  -0.000006  -0.000244   0.003383  -0.005618  -0.017844
              13         14         15         16         17         18
     1  C   -0.000000   0.374733   0.368083   0.367453  -0.058918  -0.011901
     2  C    0.000000  -0.035120  -0.033413  -0.032775   0.364833  -0.046185
     3  C    0.000000  -0.006090  -0.000831  -0.000802  -0.044857   0.361594
     4  C    0.000000   0.000115  -0.000214  -0.000130  -0.011758  -0.055730
     5  C   -0.000000  -0.000003  -0.000005   0.000023   0.000189  -0.002065
     6  C    0.000000  -0.000002  -0.000000   0.000001   0.000017   0.002069
     7  C   -0.000011  -0.000000   0.000000  -0.000000  -0.000001   0.000161
     8  C    0.000239   0.000000  -0.000000  -0.000000   0.000000  -0.000005
     9  C   -0.002303  -0.000000   0.000000   0.000000  -0.000000   0.000000
    10  C   -0.009706  -0.000000  -0.000000  -0.000000  -0.000000   0.000000
    11  C   -0.061338  -0.000000  -0.000000   0.000000   0.000000   0.000000
    12  C    0.266347   0.000000   0.000000  -0.000000  -0.000000  -0.000000
    13  S   15.700526  -0.000000  -0.000000  -0.000000  -0.000000   0.000000
    14  H   -0.000000   0.561947  -0.028766  -0.028785   0.004725   0.007116
    15  H   -0.000000  -0.028766   0.576901  -0.034623  -0.000552   0.000168
    16  H   -0.000000  -0.028785  -0.034623   0.576992  -0.000662   0.000204
    17  H   -0.000000   0.004725  -0.000552  -0.000662   0.614070   0.006725
    18  H    0.000000   0.007116   0.000168   0.000204   0.006725   0.614884
    19  H    0.000000  -0.000000   0.000021  -0.000004   0.000162  -0.002927
    20  H    0.000000   0.000018   0.000002  -0.000005   0.007049   0.005184
    21  H    0.000000   0.000000   0.000000  -0.000000  -0.000034  -0.000121
    22  H    0.000000   0.000001   0.000002  -0.000006   0.000169  -0.000038
    23  H    0.000000   0.000000  -0.000000   0.000000   0.000000   0.000011
    24  H   -0.000000   0.000005   0.000001  -0.000008   0.000000   0.000911
    25  H    0.000002   0.000000   0.000000   0.000000   0.000000  -0.000028
    26  H    0.000000  -0.000000  -0.000000   0.000000   0.000001   0.001429
    27  H   -0.000027  -0.000000   0.000000  -0.000000  -0.000000  -0.000000
    28  H   -0.000003   0.000000   0.000000  -0.000000   0.000000  -0.000001
    29  H   -0.000560   0.000000   0.000000  -0.000000   0.000000  -0.000000
    30  H    0.000002  -0.000000   0.000000  -0.000000  -0.000000  -0.000000
    31  H    0.009719  -0.000000   0.000000  -0.000000   0.000000   0.000000
    32  H    0.000032   0.000000  -0.000000   0.000000   0.000000  -0.000000
    33  H    0.000517   0.000000   0.000000  -0.000000   0.000000   0.000000
    34  H    0.006948   0.000000   0.000000  -0.000000   0.000000   0.000000
    35  H   -0.040225   0.000000  -0.000000   0.000000   0.000000  -0.000000
    36  H   -0.042881   0.000000   0.000000  -0.000000   0.000000   0.000000
    37  H    0.254887   0.000000   0.000000  -0.000000   0.000000  -0.000000
              19         20         21         22         23         24
     1  C   -0.000227   0.000187   0.000003  -0.000082  -0.000000   0.000009
     2  C    0.001127  -0.007001   0.000037   0.002187  -0.000012   0.000419
     3  C   -0.036086  -0.040567   0.005530  -0.002432  -0.000030   0.007407
     4  C    0.365577   0.368975  -0.036003  -0.039204   0.005241  -0.008118
     5  C   -0.042861  -0.032475   0.363065   0.367616  -0.035902  -0.039230
     6  C   -0.007670   0.005121  -0.038524  -0.035345   0.372241   0.370143
     7  C    0.003950  -0.000009  -0.007796   0.005362  -0.039390  -0.036311
     8  C   -0.000088   0.000023   0.004033  -0.000040  -0.008013   0.005369
     9  C    0.000008  -0.000001  -0.000113   0.000029   0.004304  -0.000039
    10  C    0.000000   0.000000   0.000009  -0.000002  -0.000118   0.000034
    11  C    0.000000  -0.000000   0.000000   0.000000   0.000009  -0.000002
    12  C    0.000000   0.000000   0.000000  -0.000000   0.000000   0.000000
    13  S    0.000000   0.000000   0.000000   0.000000   0.000000  -0.000000
    14  H   -0.000000   0.000018   0.000000   0.000001   0.000000   0.000005
    15  H    0.000021   0.000002   0.000000   0.000002  -0.000000   0.000001
    16  H   -0.000004  -0.000005  -0.000000  -0.000006   0.000000  -0.000008
    17  H    0.000162   0.007049  -0.000034   0.000169   0.000000   0.000000
    18  H   -0.002927   0.005184  -0.000121  -0.000038   0.000011   0.000911
    19  H    0.608796  -0.036609  -0.003350   0.006142  -0.000002   0.000076
    20  H   -0.036609   0.602574  -0.003396  -0.003662  -0.000141  -0.000012
    21  H   -0.003350  -0.003396   0.617630  -0.036515  -0.004783   0.006060
    22  H    0.006142  -0.003662  -0.036515   0.608502  -0.002971  -0.003662
    23  H   -0.000002  -0.000141  -0.004783  -0.002971   0.609237  -0.037769
    24  H    0.000076  -0.000012   0.006060  -0.003662  -0.037769   0.608248
    25  H   -0.000047  -0.000001  -0.000022  -0.000149  -0.004530  -0.002841
    26  H    0.001525  -0.000042  -0.000155  -0.000022   0.005930  -0.004393
    27  H   -0.000034   0.000001  -0.000030  -0.000000  -0.000018  -0.000148
    28  H    0.001941  -0.000048   0.001178  -0.000036  -0.000140  -0.000015
    29  H    0.000000  -0.000000  -0.000042   0.000001  -0.000034  -0.000000
    30  H   -0.000003   0.000000   0.002349  -0.000043   0.000970  -0.000033
    31  H   -0.000000  -0.000000   0.000000  -0.000000  -0.000048   0.000001
    32  H   -0.000000  -0.000000  -0.000006   0.000000   0.002444  -0.000050
    33  H    0.000000   0.000000  -0.000000  -0.000000   0.000000  -0.000000
    34  H   -0.000000   0.000000  -0.000000  -0.000000  -0.000007   0.000000
    35  H    0.000000  -0.000000   0.000000   0.000000  -0.000000  -0.000000
    36  H    0.000000   0.000000  -0.000000   0.000000  -0.000000  -0.000000
    37  H    0.000000  -0.000000   0.000000   0.000000  -0.000000   0.000000
              25         26         27         28         29         30
     1  C   -0.000000  -0.000001   0.000000  -0.000000   0.000000   0.000000
     2  C    0.000000  -0.000009  -0.000000   0.000000  -0.000000   0.000000
     3  C    0.000013  -0.000077  -0.000002   0.000021   0.000000   0.000000
     4  C   -0.000009   0.003948   0.000020   0.000178  -0.000001   0.000003
     5  C    0.005312  -0.007715  -0.000034   0.003978   0.000025   0.000037
     6  C   -0.036053  -0.038809   0.005291  -0.007483  -0.000022   0.004105
     7  C    0.371238   0.371786  -0.036198  -0.038650   0.005325  -0.007469
     8  C   -0.039512  -0.036486   0.370506   0.372045  -0.036594  -0.038552
     9  C   -0.007749   0.005363  -0.039549  -0.036075   0.369650   0.373217
    10  C    0.004314  -0.000035  -0.007816   0.005292  -0.039809  -0.035726
    11  C   -0.000245   0.000035   0.004260  -0.000057  -0.008116   0.005337
    12  C    0.000007  -0.000002  -0.000016   0.000027   0.004490  -0.000014
    13  S    0.000002   0.000000  -0.000027  -0.000003  -0.000560   0.000002
    14  H    0.000000  -0.000000  -0.000000   0.000000   0.000000  -0.000000
    15  H    0.000000  -0.000000   0.000000   0.000000   0.000000   0.000000
    16  H    0.000000   0.000000  -0.000000  -0.000000  -0.000000  -0.000000
    17  H    0.000000   0.000001  -0.000000   0.000000   0.000000  -0.000000
    18  H   -0.000028   0.001429  -0.000000  -0.000001  -0.000000  -0.000000
    19  H   -0.000047   0.001525  -0.000034   0.001941   0.000000  -0.000003
    20  H   -0.000001  -0.000042   0.000001  -0.000048  -0.000000   0.000000
    21  H   -0.000022  -0.000155  -0.000030   0.001178  -0.000042   0.002349
    22  H   -0.000149  -0.000022  -0.000000  -0.000036   0.000001  -0.000043
    23  H   -0.004530   0.005930  -0.000018  -0.000140  -0.000034   0.000970
    24  H   -0.002841  -0.004393  -0.000148  -0.000015  -0.000000  -0.000033
    25  H    0.611111  -0.037924  -0.004719   0.005944  -0.000023  -0.000149
    26  H   -0.037924   0.611033  -0.002698  -0.004650  -0.000149  -0.000020
    27  H   -0.004719  -0.002698   0.615588  -0.037747  -0.004807   0.005928
    28  H    0.005944  -0.004650  -0.037747   0.606690  -0.002675  -0.004690
    29  H   -0.000023  -0.000149  -0.004807  -0.002675   0.621480  -0.037867
    30  H   -0.000149  -0.000020   0.005928  -0.004690  -0.037867   0.601809
    31  H   -0.000027  -0.000001  -0.000015  -0.000142  -0.004522  -0.002682
    32  H    0.000994  -0.000036  -0.000164  -0.000012   0.005927  -0.004724
    33  H   -0.000036   0.000001  -0.000027  -0.000000  -0.000041  -0.000140
    34  H    0.002672  -0.000049   0.001239  -0.000021  -0.000132  -0.000019
    35  H    0.000000  -0.000000  -0.000047   0.000001  -0.000031  -0.000000
    36  H   -0.000002  -0.000000   0.002243  -0.000021   0.001111  -0.000070
    37  H    0.000000  -0.000000  -0.000009   0.000001   0.001915  -0.000054
              31         32         33         34         35         36
     1  C   -0.000000  -0.000000   0.000000  -0.000000  -0.000000  -0.000000
     2  C    0.000000  -0.000000  -0.000000   0.000000  -0.000000  -0.000000
     3  C   -0.000000   0.000000   0.000000   0.000000  -0.000000   0.000000
     4  C    0.000000   0.000000  -0.000000   0.000000   0.000000   0.000000
     5  C   -0.000002   0.000002   0.000000   0.000001  -0.000000   0.000000
     6  C    0.000028   0.000070  -0.000002  -0.000002   0.000000   0.000000
     7  C   -0.000025   0.004098   0.000026   0.000035  -0.000001   0.000006
     8  C    0.005277  -0.007566  -0.000034   0.003782   0.000003  -0.000139
     9  C   -0.037371  -0.038370   0.005123  -0.007565   0.000031   0.004933
    10  C    0.369281   0.374161  -0.033358  -0.038697   0.004375  -0.007209
    11  C   -0.039933  -0.035532   0.376330   0.358078  -0.032445  -0.042527
    12  C   -0.005725   0.005308  -0.042096  -0.035021   0.375571   0.367123
    13  S    0.009719   0.000032   0.000517   0.006948  -0.040225  -0.042881
    14  H   -0.000000   0.000000   0.000000   0.000000   0.000000   0.000000
    15  H    0.000000  -0.000000   0.000000   0.000000  -0.000000   0.000000
    16  H   -0.000000   0.000000  -0.000000  -0.000000   0.000000  -0.000000
    17  H    0.000000   0.000000   0.000000   0.000000   0.000000   0.000000
    18  H    0.000000  -0.000000   0.000000   0.000000  -0.000000   0.000000
    19  H   -0.000000  -0.000000   0.000000  -0.000000   0.000000   0.000000
    20  H   -0.000000  -0.000000   0.000000   0.000000  -0.000000   0.000000
    21  H    0.000000  -0.000006  -0.000000  -0.000000   0.000000  -0.000000
    22  H   -0.000000   0.000000  -0.000000  -0.000000   0.000000   0.000000
    23  H   -0.000048   0.002444   0.000000  -0.000007  -0.000000  -0.000000
    24  H    0.000001  -0.000050  -0.000000   0.000000  -0.000000  -0.000000
    25  H   -0.000027   0.000994  -0.000036   0.002672   0.000000  -0.000002
    26  H   -0.000001  -0.000036   0.000001  -0.000049  -0.000000  -0.000000
    27  H   -0.000015  -0.000164  -0.000027   0.001239  -0.000047   0.002243
    28  H   -0.000142  -0.000012  -0.000000  -0.000021   0.000001  -0.000021
    29  H   -0.004522   0.005927  -0.000041  -0.000132  -0.000031   0.001111
    30  H   -0.002682  -0.004724  -0.000140  -0.000019  -0.000000  -0.000070
    31  H    0.604474  -0.036019  -0.004272   0.006096  -0.000046   0.000129
    32  H   -0.036019   0.595808  -0.002652  -0.004620  -0.000124   0.000007
    33  H   -0.004272  -0.002652   0.585262  -0.036731  -0.002765   0.005428
    34  H    0.006096  -0.004620  -0.036731   0.609714  -0.003424  -0.002467
    35  H   -0.000046  -0.000124  -0.002765  -0.003424   0.545401  -0.028740
    36  H    0.000129   0.000007   0.005428  -0.002467  -0.028740   0.569597
    37  H   -0.000379   0.000023  -0.000403  -0.000017   0.003341  -0.006097
              37
     1  C    0.000000
     2  C   -0.000000
     3  C    0.000000
     4  C   -0.000000
     5  C    0.000000
     6  C    0.000000
     7  C    0.000000
     8  C   -0.000006
     9  C   -0.000244
    10  C    0.003383
    11  C   -0.005618
    12  C   -0.017844
    13  S    0.254887
    14  H    0.000000
    15  H    0.000000
    16  H   -0.000000
    17  H    0.000000
    18  H   -0.000000
    19  H    0.000000
    20  H   -0.000000
    21  H    0.000000
    22  H    0.000000
    23  H   -0.000000
    24  H    0.000000
    25  H    0.000000
    26  H   -0.000000
    27  H   -0.000009
    28  H    0.000001
    29  H    0.001915
    30  H   -0.000054
    31  H   -0.000379
    32  H    0.000023
    33  H   -0.000403
    34  H   -0.000017
    35  H    0.003341
    36  H   -0.006097
    37  H    0.672311
 Mulliken charges:
               1
     1  C   -0.483249
     2  C   -0.095281
     3  C   -0.089333
     4  C   -0.309652
     5  C   -0.253862
     6  C   -0.265130
     7  C   -0.265530
     8  C   -0.263017
     9  C   -0.266822
    10  C   -0.271006
    11  C   -0.249611
    12  C   -0.420949
    13  S   -0.082165
    14  H    0.150105
    15  H    0.153228
    16  H    0.153125
    17  H    0.118841
    18  H    0.118547
    19  H    0.140585
    20  H    0.134838
    21  H    0.130996
    22  H    0.134201
    23  H    0.133520
    24  H    0.133949
    25  H    0.132456
    26  H    0.132220
    27  H    0.129028
    28  H    0.135171
    29  H    0.125501
    30  H    0.138497
    31  H    0.136205
    32  H    0.141003
    33  H    0.149872
    34  H    0.140208
    35  H    0.179124
    36  H    0.179576
    37  H    0.094810
 Sum of Mulliken charges =  -0.00000
 Mulliken charges with hydrogens summed into heavy atoms:
               1
     1  C   -0.026791
     2  C    0.023560
     3  C    0.029215
     4  C   -0.034228
     5  C    0.011334
     6  C    0.002339
     7  C   -0.000853
     8  C    0.001182
     9  C   -0.002824
    10  C    0.006202
    11  C    0.040468
    12  C   -0.062249
    13  S    0.012645
 Electronic spatial extent (au):  <R**2>=           6648.2681
 Charge=              0.0000 electrons
 Dipole moment (field-independent basis, Debye):
    X=              2.0290    Y=              0.2347    Z=             -0.2260  Tot=              2.0550
 Quadrupole moment (field-independent basis, Debye-Ang):
   XX=           -108.0267   YY=            -89.1448   ZZ=            -93.2057
   XY=             -1.8646   XZ=              1.6458   YZ=             -1.5837
 Traceless Quadrupole moment (field-independent basis, Debye-Ang):
   XX=            -11.2343   YY=              7.6476   ZZ=              3.5867
   XY=             -1.8646   XZ=              1.6458   YZ=             -1.5837
 Octapole moment (field-independent basis, Debye-Ang**2):
  XXX=            151.4481  YYY=             -0.2138  ZZZ=              0.1760  XYY=             -7.3051
  XXY=              7.7910  XXZ=              0.5030  XZZ=             -4.3871  YZZ=              0.8214
  YYZ=              0.2602  XYZ=             10.2592
 Hexadecapole moment (field-independent basis, Debye-Ang**3):
 XXXX=          -9023.0453 YYYY=           -461.9664 ZZZZ=           -360.4612 XXXY=            -95.5133
 XXXZ=             22.8870 YYYX=              0.4608 YYYZ=             -1.6353 ZZZX=             12.6399
 ZZZY=             -3.4523 XXYY=          -1399.9729 XXZZ=          -1484.0920 YYZZ=           -136.0552
 XXYZ=            -53.1429 YYXZ=             -4.8039 ZZXY=             -5.4846
 N-N= 8.743057403897D+02 E-N=-3.784379884504D+03  KE= 8.640204550977D+02
 Calling FoFJK, ICntrl=      2127 FMM=F ISym2X=0 I1Cent= 0 IOpClX= 0 NMat=1 NMatS=1 NMatT=0.
 ***** Axes restored to original set *****
 -------------------------------------------------------------------
 Center     Atomic                   Forces (Hartrees/Bohr)
 Number     Number              X              Y              Z
 -------------------------------------------------------------------
      1        6           0.000540987    0.000696346    0.000607819
      2        6          -0.011250723    0.004247408   -0.009916161
      3        6           0.007500376   -0.000768576    0.010433140
      4        6           0.001439111   -0.002627848    0.001325806
      5        6           0.000696005    0.005316007   -0.002740388
      6        6           0.001004834   -0.000660422   -0.001584187
      7        6          -0.001157807   -0.001214960   -0.001230811
      8        6          -0.001478355   -0.000076437    0.002233937
      9        6           0.001251662    0.000627891    0.000796227
     10        6           0.001555356    0.000628387   -0.000929951
     11        6           0.001952360   -0.005847971   -0.003335398
     12        6           0.003848566   -0.010020536    0.001997016
     13       16          -0.006221246    0.009836850   -0.004108335
     14        1          -0.000497263    0.000767758   -0.000124312
     15        1           0.002070817   -0.004036625    0.000528545
     16        1           0.002566841   -0.003861659    0.000028093
     17        1           0.000120135    0.001985323    0.001639635
     18        1           0.000137725   -0.001443850   -0.001477738
     19        1          -0.002639793    0.002363564   -0.000620169
     20        1           0.000529291   -0.001570128   -0.000082128
     21        1          -0.000661410    0.001465978    0.000423361
     22        1          -0.000069497   -0.001011242    0.000985229
     23        1           0.000362550    0.000925238   -0.000402102
     24        1           0.000338842   -0.000844957    0.000149203
     25        1          -0.000290785   -0.000150402   -0.001101516
     26        1          -0.000529403   -0.000663653    0.000779066
     27        1          -0.001171060   -0.000290891    0.000044638
     28        1           0.000289783    0.000258420    0.000862428
     29        1          -0.000703153    0.001143069    0.001198295
     30        1           0.000769356    0.000261202   -0.000173434
     31        1          -0.000573578    0.000823511   -0.000733304
     32        1          -0.000537525   -0.000578493   -0.000507275
     33        1          -0.000719838    0.001638418    0.000973629
     34        1          -0.001221751   -0.001310531    0.001886009
     35        1          -0.000030860    0.004336923   -0.000198638
     36        1          -0.000945529   -0.000686329    0.000325454
     37        1           0.003724979    0.000343217    0.002048315
 -------------------------------------------------------------------
 Cartesian Forces:  Max     0.011250723 RMS     0.002904796

 GradGradGradGradGradGradGradGradGradGradGradGradGradGradGradGradGradGrad
 Berny optimization.
 FormGI is forming the generalized inverse of G from B-inverse, IUseBI=4.
 Internal  Forces:  Max     0.009819659 RMS     0.001804358
 Search for a local minimum.
 Step number   1 out of a maximum of  204
 All quantities printed in internal units (Hartrees-Bohrs-Radians)
 Mixed Optimization -- RFO/linear search
 Second derivative matrix not updated -- first step.
 ITU=  0
     Eigenvalues ---    0.00230   0.00317   0.00322   0.00334   0.00338
     Eigenvalues ---    0.00339   0.00340   0.00343   0.00380   0.00727
     Eigenvalues ---    0.00843   0.01607   0.01682   0.02857   0.03162
     Eigenvalues ---    0.03193   0.03207   0.03209   0.03213   0.03219
     Eigenvalues ---    0.03221   0.04006   0.04510   0.04718   0.04726
     Eigenvalues ---    0.04728   0.04730   0.04733   0.04733   0.04734
     Eigenvalues ---    0.05398   0.05700   0.07203   0.07479   0.08838
     Eigenvalues ---    0.08838   0.08841   0.08845   0.08848   0.08857
     Eigenvalues ---    0.08969   0.09519   0.11502   0.12565   0.12565
     Eigenvalues ---    0.12568   0.12570   0.12574   0.12580   0.12655
     Eigenvalues ---    0.12941   0.13922   0.15999   0.16000   0.16000
     Eigenvalues ---    0.16000   0.16000   0.16000   0.21922   0.21922
     Eigenvalues ---    0.21926   0.21926   0.21927   0.21930   0.21947
     Eigenvalues ---    0.21948   0.22000   0.22000   0.22027   0.24833
     Eigenvalues ---    0.26358   0.29061   0.29095   0.29179   0.29204
     Eigenvalues ---    0.29213   0.29222   0.29243   0.29500   0.32073
     Eigenvalues ---    0.33000   0.33910   0.33915   0.33963   0.34037
     Eigenvalues ---    0.34044   0.34055   0.34064   0.34066   0.34066
     Eigenvalues ---    0.34075   0.34076   0.34077   0.34078   0.34081
     Eigenvalues ---    0.34090   0.34166   0.34227   0.34291   0.34326
     Eigenvalues ---    0.34327   0.34380   0.35030   0.35060   0.56774
 RFO step:  Lambda=-3.20929405D-03 EMin= 2.30000000D-03
 Linear search not attempted -- first point.
 Iteration  1 RMS(Cart)=  0.05246356 RMS(Int)=  0.00055358
 Iteration  2 RMS(Cart)=  0.00153396 RMS(Int)=  0.00008042
 Iteration  3 RMS(Cart)=  0.00000084 RMS(Int)=  0.00008042
 Variable       Old X    -DE/DX   Delta X   Delta X   Delta X     New X
                                 (Linear)    (Quad)   (Total)
    R1        2.82352   0.00660   0.00000   0.01982   0.01982   2.84334
    R2        2.06841   0.00017   0.00000   0.00048   0.00048   2.06889
    R3        2.06782   0.00268   0.00000   0.00772   0.00772   2.07555
    R4        2.06783   0.00271   0.00000   0.00783   0.00783   2.07566
    R5        2.53588  -0.00737   0.00000  -0.01290  -0.01290   2.52298
    R6        2.05577   0.00198   0.00000   0.00558   0.00558   2.06136
    R7        2.84011   0.00200   0.00000   0.00618   0.00618   2.84629
    R8        2.05625   0.00152   0.00000   0.00429   0.00429   2.06054
    R9        2.89632   0.00437   0.00000   0.01481   0.01481   2.91113
   R10        2.07050   0.00261   0.00000   0.00756   0.00756   2.07806
   R11        2.07393  -0.00013   0.00000  -0.00037  -0.00037   2.07356
   R12        2.89805   0.00123   0.00000   0.00418   0.00418   2.90223
   R13        2.07193   0.00160   0.00000   0.00464   0.00464   2.07657
   R14        2.07482  -0.00018   0.00000  -0.00051  -0.00051   2.07431
   R15        2.89499   0.00215   0.00000   0.00729   0.00729   2.90228
   R16        2.07200   0.00103   0.00000   0.00299   0.00299   2.07499
   R17        2.07255   0.00075   0.00000   0.00218   0.00218   2.07474
   R18        2.89542   0.00194   0.00000   0.00657   0.00657   2.90199
   R19        2.07204   0.00114   0.00000   0.00332   0.00332   2.07536
   R20        2.07201   0.00111   0.00000   0.00323   0.00323   2.07524
   R21        2.89579   0.00197   0.00000   0.00669   0.00669   2.90247
   R22        2.07218   0.00118   0.00000   0.00344   0.00344   2.07563
   R23        2.07222   0.00092   0.00000   0.00268   0.00268   2.07489
   R24        2.89561   0.00228   0.00000   0.00771   0.00771   2.90332
   R25        2.07199   0.00175   0.00000   0.00509   0.00509   2.07709
   R26        2.07219   0.00077   0.00000   0.00224   0.00224   2.07443
   R27        2.89875  -0.00013   0.00000  -0.00043  -0.00043   2.89832
   R28        2.07178   0.00077   0.00000   0.00224   0.00224   2.07403
   R29        2.07238   0.00039   0.00000   0.00112   0.00112   2.07350
   R30        2.88972   0.00224   0.00000   0.00750   0.00750   2.89722
   R31        2.07474  -0.00076   0.00000  -0.00223  -0.00223   2.07251
   R32        2.07268   0.00200   0.00000   0.00582   0.00582   2.07850
   R33        3.43335   0.00982   0.00000   0.03904   0.03904   3.47239
   R34        2.06949  -0.00088   0.00000  -0.00256  -0.00256   2.06693
   R35        2.06694   0.00033   0.00000   0.00096   0.00096   2.06790
   R36        2.53376   0.00426   0.00000   0.01598   0.01598   2.54974
    A1        1.95915  -0.00271   0.00000  -0.01606  -0.01596   1.94318
    A2        1.91798   0.00419   0.00000   0.02541   0.02531   1.94329
    A3        1.91794   0.00429   0.00000   0.02607   0.02597   1.94391
    A4        1.88805  -0.00078   0.00000  -0.00432  -0.00424   1.88381
    A5        1.88809  -0.00081   0.00000  -0.00441  -0.00432   1.88376
    A6        1.89105  -0.00445   0.00000  -0.02834  -0.02861   1.86244
    A7        2.16265   0.00510   0.00000   0.02285   0.02285   2.18550
    A8        2.02819  -0.00090   0.00000  -0.00131  -0.00132   2.02687
    A9        2.09233  -0.00420   0.00000  -0.02151  -0.02152   2.07081
   A10        2.16333   0.00353   0.00000   0.01590   0.01576   2.17909
   A11        2.08502  -0.00305   0.00000  -0.01566  -0.01580   2.06922
   A12        2.03475  -0.00047   0.00000   0.00015   0.00001   2.03476
   A13        1.97686   0.00168   0.00000   0.00683   0.00683   1.98368
   A14        1.89918   0.00118   0.00000   0.00891   0.00893   1.90811
   A15        1.91968  -0.00178   0.00000  -0.00922  -0.00926   1.91042
   A16        1.92805  -0.00290   0.00000  -0.02303  -0.02300   1.90505
   A17        1.88820   0.00105   0.00000   0.01045   0.01048   1.89868
   A18        1.84750   0.00068   0.00000   0.00581   0.00587   1.85337
   A19        2.01993  -0.00225   0.00000  -0.01207  -0.01209   2.00784
   A20        1.89435   0.00085   0.00000   0.00403   0.00405   1.89840
   A21        1.89986  -0.00026   0.00000  -0.00774  -0.00774   1.89212
   A22        1.90886   0.00056   0.00000   0.00391   0.00390   1.91276
   A23        1.88635   0.00131   0.00000   0.00655   0.00646   1.89281
   A24        1.84680  -0.00006   0.00000   0.00690   0.00688   1.85368
   A25        2.01707  -0.00184   0.00000  -0.00975  -0.00976   2.00731
   A26        1.89088   0.00032   0.00000  -0.00018  -0.00017   1.89071
   A27        1.90847   0.00042   0.00000  -0.00003  -0.00004   1.90843
   A28        1.90903   0.00075   0.00000   0.00421   0.00419   1.91322
   A29        1.89121   0.00059   0.00000   0.00225   0.00223   1.89344
   A30        1.83900  -0.00009   0.00000   0.00482   0.00481   1.84381
   A31        2.01628  -0.00196   0.00000  -0.00984  -0.00985   2.00643
   A32        1.89076   0.00038   0.00000   0.00213   0.00215   1.89290
   A33        1.90934   0.00087   0.00000   0.00295   0.00291   1.91225
   A34        1.90771   0.00092   0.00000   0.00611   0.00612   1.91383
   A35        1.89243   0.00016   0.00000  -0.00286  -0.00287   1.88956
   A36        1.83920  -0.00023   0.00000   0.00264   0.00263   1.84183
   A37        2.01678  -0.00229   0.00000  -0.01125  -0.01125   2.00553
   A38        1.89130   0.00044   0.00000   0.00119   0.00120   1.89249
   A39        1.90781   0.00093   0.00000   0.00391   0.00389   1.91170
   A40        1.90763   0.00100   0.00000   0.00562   0.00561   1.91325
   A41        1.89178   0.00040   0.00000  -0.00023  -0.00024   1.89154
   A42        1.84051  -0.00033   0.00000   0.00192   0.00191   1.84242
   A43        2.01720  -0.00179   0.00000  -0.00874  -0.00874   2.00846
   A44        1.89226   0.00011   0.00000  -0.00150  -0.00149   1.89077
   A45        1.90739   0.00092   0.00000   0.00505   0.00504   1.91243
[...]
   291    S   13  dxz    Ryd( 3d)     0.00128       1.08647
   292    S   13  dyz    Ryd( 3d)     0.00081       1.08650
   293    S   13  dx2y2  Ryd( 3d)     0.00107       1.08499
   294    S   13  dz2    Ryd( 3d)     0.00094       1.10704
 
   295    H   14  S      Val( 1S)     0.39902       0.12085
   296    H   14  S      Ryd( 2S)     0.00045       0.37627
   297    H   14  S      Ryd( 3S)     0.00073       0.61722
   298    H   14  S      Ryd( 4S)     0.00009       2.08661
   299    H   14  px     Ryd( 2p)     0.00007       1.97822
   300    H   14  py     Ryd( 2p)     0.00013       2.63297
   301    H   14  pz     Ryd( 2p)     0.00006       1.80528
 
   302    H   15  S      Val( 1S)     0.39824       0.11723
   303    H   15  S      Ryd( 2S)     0.00046       0.24842
   304    H   15  S      Ryd( 3S)     0.00076       0.55476
   305    H   15  S      Ryd( 4S)     0.00011       2.25735
   306    H   15  px     Ryd( 2p)     0.00012       2.29771
   307    H   15  py     Ryd( 2p)     0.00007       1.80177
   308    H   15  pz     Ryd( 2p)     0.00012       2.31813
 
   309    H   16  S      Val( 1S)     0.39647       0.11707
   310    H   16  S      Ryd( 2S)     0.00076       0.23677
   311    H   16  S      Ryd( 3S)     0.00078       0.54372
   312    H   16  S      Ryd( 4S)     0.00011       2.27117
   313    H   16  px     Ryd( 2p)     0.00010       2.06110
   314    H   16  py     Ryd( 2p)     0.00007       1.82034
   315    H   16  pz     Ryd( 2p)     0.00014       2.53949
 
   316    H   17  S      Val( 1S)     0.41088       0.13009
   317    H   17  S      Ryd( 2S)     0.00027       0.45444
   318    H   17  S      Ryd( 3S)     0.00066       1.10670
   319    H   17  S      Ryd( 4S)     0.00004       1.62220
   320    H   17  px     Ryd( 2p)     0.00009       2.14446
   321    H   17  py     Ryd( 2p)     0.00024       2.65106
   322    H   17  pz     Ryd( 2p)     0.00010       1.70406
 
   323    H   18  S      Val( 1S)     0.40824       0.13698
   324    H   18  S      Ryd( 2S)     0.00041       0.67865
   325    H   18  S      Ryd( 4S)     0.00057       1.48801
   326    H   18  S      Ryd( 3S)     0.00006       1.16880
   327    H   18  px     Ryd( 2p)     0.00008       2.17039
   328    H   18  py     Ryd( 2p)     0.00023       2.69680
   329    H   18  pz     Ryd( 2p)     0.00011       1.73714
 
   330    H   19  S      Val( 1S)     0.39912       0.13048
   331    H   19  S      Ryd( 2S)     0.00056       0.56974
   332    H   19  S      Ryd( 3S)     0.00059       1.35129
   333    H   19  S      Ryd( 4S)     0.00007       1.40343
   334    H   19  px     Ryd( 2p)     0.00010       2.17164
   335    H   19  py     Ryd( 2p)     0.00008       1.95605
   336    H   19  pz     Ryd( 2p)     0.00015       2.56927
 
   337    H   20  S      Val( 1S)     0.39999       0.13012
   338    H   20  S      Ryd( 2S)     0.00032       0.52234
   339    H   20  S      Ryd( 3S)     0.00069       0.97773
   340    H   20  S      Ryd( 4S)     0.00009       1.82716
   341    H   20  px     Ryd( 2p)     0.00009       2.10168
   342    H   20  py     Ryd( 2p)     0.00015       2.59179
   343    H   20  pz     Ryd( 2p)     0.00007       1.92421
 
   344    H   21  S      Val( 1S)     0.40282       0.13468
   345    H   21  S      Ryd( 2S)     0.00048       0.60108
   346    H   21  S      Ryd( 3S)     0.00050       1.27402
   347    H   21  S      Ryd( 4S)     0.00009       1.45437
   348    H   21  px     Ryd( 2p)     0.00011       2.27973
   349    H   21  py     Ryd( 2p)     0.00014       2.44672
   350    H   21  pz     Ryd( 2p)     0.00007       1.95147
 
   351    H   22  S      Val( 1S)     0.40203       0.13708
   352    H   22  S      Ryd( 2S)     0.00034       0.47535
   353    H   22  S      Ryd( 3S)     0.00056       1.09486
   354    H   22  S      Ryd( 4S)     0.00009       1.76159
   355    H   22  px     Ryd( 2p)     0.00010       2.16822
   356    H   22  py     Ryd( 2p)     0.00008       2.04166
   357    H   22  pz     Ryd( 2p)     0.00013       2.44359
 
   358    H   23  S      Val( 1S)     0.40187       0.13719
   359    H   23  S      Ryd( 2S)     0.00044       0.62869
   360    H   23  S      Ryd( 4S)     0.00050       1.39784
   361    H   23  S      Ryd( 3S)     0.00007       1.35889
   362    H   23  px     Ryd( 2p)     0.00009       2.23595
   363    H   23  py     Ryd( 2p)     0.00008       1.95143
   364    H   23  pz     Ryd( 2p)     0.00013       2.50365
 
   365    H   24  S      Val( 1S)     0.40047       0.13956
   366    H   24  S      Ryd( 2S)     0.00045       0.53853
   367    H   24  S      Ryd( 3S)     0.00056       1.10874
   368    H   24  S      Ryd( 4S)     0.00006       1.76400
   369    H   24  px     Ryd( 2p)     0.00010       2.32184
   370    H   24  py     Ryd( 2p)     0.00011       2.30049
   371    H   24  pz     Ryd( 2p)     0.00009       2.09249
 
   372    H   25  S      Val( 1S)     0.40190       0.13834
   373    H   25  S      Ryd( 2S)     0.00047       0.56571
   374    H   25  S      Ryd( 4S)     0.00041       1.81412
   375    H   25  S      Ryd( 3S)     0.00003       1.09206
   376    H   25  px     Ryd( 2p)     0.00009       2.16118
   377    H   25  py     Ryd( 2p)     0.00017       2.58550
   378    H   25  pz     Ryd( 2p)     0.00010       2.06543
 
   379    H   26  S      Val( 1S)     0.40217       0.13794
   380    H   26  S      Ryd( 2S)     0.00051       0.58140
   381    H   26  S      Ryd( 4S)     0.00044       1.66236
   382    H   26  S      Ryd( 3S)     0.00004       1.34260
   383    H   26  px     Ryd( 2p)     0.00012       2.29115
   384    H   26  py     Ryd( 2p)     0.00009       2.10046
   385    H   26  pz     Ryd( 2p)     0.00015       2.41129
 
   386    H   27  S      Val( 1S)     0.40179       0.13735
   387    H   27  S      Ryd( 2S)     0.00049       0.55062
   388    H   27  S      Ryd( 4S)     0.00043       1.88436
   389    H   27  S      Ryd( 3S)     0.00002       1.07502
   390    H   27  px     Ryd( 2p)     0.00009       2.18317
   391    H   27  py     Ryd( 2p)     0.00011       2.20783
   392    H   27  pz     Ryd( 2p)     0.00015       2.44790
 
   393    H   28  S      Val( 1S)     0.40155       0.13873
   394    H   28  S      Ryd( 2S)     0.00055       0.57511
   395    H   28  S      Ryd( 4S)     0.00041       1.88579
   396    H   28  S      Ryd( 3S)     0.00002       1.09877
   397    H   28  px     Ryd( 2p)     0.00009       2.16413
   398    H   28  py     Ryd( 2p)     0.00015       2.45901
   399    H   28  pz     Ryd( 2p)     0.00011       2.22491
 
   400    H   29  S      Val( 1S)     0.40164       0.13361
   401    H   29  S      Ryd( 2S)     0.00057       0.62673
   402    H   29  S      Ryd( 4S)     0.00044       1.64557
   403    H   29  S      Ryd( 3S)     0.00004       1.21468
   404    H   29  px     Ryd( 2p)     0.00012       2.30586
   405    H   29  py     Ryd( 2p)     0.00012       2.28638
   406    H   29  pz     Ryd( 2p)     0.00012       2.19942
 
   407    H   30  S      Val( 1S)     0.40090       0.13814
   408    H   30  S      Ryd( 2S)     0.00042       0.58724
   409    H   30  S      Ryd( 4S)     0.00043       1.87820
   410    H   30  S      Ryd( 3S)     0.00002       1.00773
   411    H   30  px     Ryd( 2p)     0.00010       2.16553
   412    H   30  py     Ryd( 2p)     0.00013       2.36992
   413    H   30  pz     Ryd( 2p)     0.00014       2.27086
 
   414    H   31  S      Val( 1S)     0.39963       0.13659
   415    H   31  S      Ryd( 2S)     0.00035       0.50407
   416    H   31  S      Ryd( 3S)     0.00069       1.19665
   417    H   31  S      Ryd( 4S)     0.00007       1.65985
   418    H   31  px     Ryd( 2p)     0.00010       2.29941
   419    H   31  py     Ryd( 2p)     0.00009       2.12145
   420    H   31  pz     Ryd( 2p)     0.00010       2.27511
 
   421    H   32  S      Val( 1S)     0.40063       0.13580
   422    H   32  S      Ryd( 2S)     0.00044       0.59485
   423    H   32  S      Ryd( 4S)     0.00046       1.46307
   424    H   32  S      Ryd( 3S)     0.00006       1.36760
   425    H   32  px     Ryd( 2p)     0.00009       2.25467
   426    H   32  py     Ryd( 2p)     0.00009       2.08229
   427    H   32  pz     Ryd( 2p)     0.00011       2.33570
 
   428    H   33  S      Val( 1S)     0.39812       0.13551
   429    H   33  S      Ryd( 2S)     0.00053       0.42840
   430    H   33  S      Ryd( 4S)     0.00040       1.73922
   431    H   33  S      Ryd( 3S)     0.00001       1.13359
   432    H   33  px     Ryd( 2p)     0.00010       2.17705
   433    H   33  py     Ryd( 2p)     0.00010       2.21677
   434    H   33  pz     Ryd( 2p)     0.00013       2.27843
 
   435    H   34  S      Val( 1S)     0.39843       0.12845
   436    H   34  S      Ryd( 2S)     0.00058       0.52577
   437    H   34  S      Ryd( 4S)     0.00050       1.90611
   438    H   34  S      Ryd( 3S)     0.00001       0.93889
   439    H   34  px     Ryd( 2p)     0.00012       2.25671
   440    H   34  py     Ryd( 2p)     0.00011       2.30299
   441    H   34  pz     Ryd( 2p)     0.00009       2.11072
 
   442    H   35  S      Val( 1S)     0.39164       0.11990
   443    H   35  S      Ryd( 2S)     0.00075       0.39058
   444    H   35  S      Ryd( 4S)     0.00039       1.58517
   445    H   35  S      Ryd( 3S)     0.00003       1.12616
   446    H   35  px     Ryd( 2p)     0.00010       2.08510
   447    H   35  py     Ryd( 2p)     0.00014       2.37605
   448    H   35  pz     Ryd( 2p)     0.00008       2.03434
 
   449    H   36  S      Val( 1S)     0.39596       0.12461
   450    H   36  S      Ryd( 2S)     0.00072       0.48901
   451    H   36  S      Ryd( 4S)     0.00052       1.78255
   452    H   36  S      Ryd( 3S)     0.00001       0.89451
   453    H   36  px     Ryd( 2p)     0.00008       2.09894
   454    H   36  py     Ryd( 2p)     0.00013       2.09415
   455    H   36  pz     Ryd( 2p)     0.00011       2.36248
 
   456    H   37  S      Val( 1S)     0.43774      -0.04223
   457    H   37  S      Ryd( 2S)     0.00037       0.62272
   458    H   37  S      Ryd( 3S)     0.00039       0.65791
   459    H   37  S      Ryd( 4S)     0.00011       1.60093
   460    H   37  px     Ryd( 2p)     0.00070       1.76325
   461    H   37  py     Ryd( 2p)     0.00093       1.97072
   462    H   37  pz     Ryd( 2p)     0.00051       1.55926

 WARNING:  Population inversion found on atom  C    2
           Population inversion found on atom  C    3
           Population inversion found on atom  C    4
           Population inversion found on atom  C    5
           Population inversion found on atom  C    6
           Population inversion found on atom  C    7
           Population inversion found on atom  C    8
           Population inversion found on atom  C    9
           Population inversion found on atom  C   10
           Population inversion found on atom  C   11
           Population inversion found on atom  C   12
           Population inversion found on atom  S   13
           Population inversion found on atom  H   14
           Population inversion found on atom  H   15
           Population inversion found on atom  H   16
           Population inversion found on atom  H   17
           Population inversion found on atom  H   18
           Population inversion found on atom  H   19
           Population inversion found on atom  H   20
           Population inversion found on atom  H   21
           Population inversion found on atom  H   22
           Population inversion found on atom  H   23
           Population inversion found on atom  H   24
           Population inversion found on atom  H   25
           Population inversion found on atom  H   26
           Population inversion found on atom  H   27
           Population inversion found on atom  H   28
           Population inversion found on atom  H   29
           Population inversion found on atom  H   30
           Population inversion found on atom  H   31
           Population inversion found on atom  H   32
           Population inversion found on atom  H   33
           Population inversion found on atom  H   34
           Population inversion found on atom  H   35
           Population inversion found on atom  H   36
           Population inversion found on atom  H   37


 Summary of Natural Population Analysis:                  
                                                          
                                       Natural Population 
                Natural  -----------------------------------------------
    Atom  No    Charge         Core      Valence    Rydberg      Total
 -----------------------------------------------------------------------
      C    1   -0.29744      0.99965     2.29279    0.00500     3.29744
      C    2   -0.08804      0.99952     2.08020    0.00832     3.08804
      C    3   -0.09343      0.99950     2.08458    0.00935     3.09343
      C    4   -0.20480      0.99961     2.19690    0.00829     3.20480
      C    5   -0.18533      0.99962     2.17859    0.00711     3.18533
      C    6   -0.19303      0.99962     2.18591    0.00749     3.19303
      C    7   -0.19434      0.99962     2.18544    0.00927     3.19434
      C    8   -0.19421      0.99962     2.18523    0.00935     3.19421
      C    9   -0.19508      0.99962     2.18588    0.00958     3.19508
      C   10   -0.19456      0.99962     2.18673    0.00821     3.19456
      C   11   -0.19870      0.99961     2.18862    0.01046     3.19870
      C   12   -0.24351      0.99958     2.23373    0.01019     3.24351
      S   13   -0.03070      4.99967     3.01579    0.01524     8.03070
      H   14    0.09945      0.00000     0.39902    0.00153     0.40055
      H   15    0.10012      0.00000     0.39824    0.00164     0.39988
      H   16    0.10157      0.00000     0.39647    0.00195     0.39843
      H   17    0.08774      0.00000     0.41088    0.00139     0.41226
      H   18    0.09030      0.00000     0.40824    0.00146     0.40970
      H   19    0.09932      0.00000     0.39912    0.00156     0.40068
      H   20    0.09861      0.00000     0.39999    0.00140     0.40139
      H   21    0.09579      0.00000     0.40282    0.00140     0.40421
      H   22    0.09667      0.00000     0.40203    0.00131     0.40333
      H   23    0.09682      0.00000     0.40187    0.00131     0.40318
      H   24    0.09817      0.00000     0.40047    0.00136     0.40183
      H   25    0.09683      0.00000     0.40190    0.00127     0.40317
      H   26    0.09648      0.00000     0.40217    0.00135     0.40352
      H   27    0.09692      0.00000     0.40179    0.00129     0.40308
      H   28    0.09711      0.00000     0.40155    0.00134     0.40289
      H   29    0.09695      0.00000     0.40164    0.00141     0.40305
      H   30    0.09788      0.00000     0.40090    0.00122     0.40212
      H   31    0.09897      0.00000     0.39963    0.00140     0.40103
      H   32    0.09811      0.00000     0.40063    0.00126     0.40189
      H   33    0.10061      0.00000     0.39812    0.00127     0.39939
      H   34    0.10015      0.00000     0.39843    0.00141     0.39985
      H   35    0.10686      0.00000     0.39164    0.00149     0.39314
      H   36    0.10246      0.00000     0.39596    0.00158     0.39754
      H   37    0.05926      0.00000     0.43774    0.00301     0.44074
 =======================================================================
   * Total *    0.00000     16.99488    38.85164    0.15348    56.00000

                                 Natural Population      
 --------------------------------------------------------
   Core                      16.99488 ( 99.9699% of  17)
   Valence                   38.85164 ( 99.6196% of  39)
   Natural Minimal Basis     55.84652 ( 99.7259% of  56)
   Natural Rydberg Basis      0.15348 (  0.2741% of  56)
 --------------------------------------------------------

    Atom  No          Natural Electron Configuration
 ----------------------------------------------------------------------------
      C    1      [core]2S( 0.54)2p( 1.75)
      C    2      [core]2S( 0.48)2p( 1.60)
      C    3      [core]2S( 0.48)2p( 1.61)4p( 0.01)
      C    4      [core]2S( 0.51)2p( 1.69)
      C    5      [core]2S( 0.51)2p( 1.67)
      C    6      [core]2S( 0.51)2p( 1.68)
      C    7      [core]2S( 0.51)2p( 1.68)
      C    8      [core]2S( 0.51)2p( 1.68)
      C    9      [core]2S( 0.51)2p( 1.68)
      C   10      [core]2S( 0.51)2p( 1.68)
      C   11      [core]2S( 0.51)2p( 1.68)3p( 0.01)
      C   12      [core]2S( 0.55)2p( 1.68)
      S   13      [core]3S( 0.86)3p( 2.16)3d( 0.01)5p( 0.01)
      H   14            1S( 0.40)
      H   15            1S( 0.40)
      H   16            1S( 0.40)
      H   17            1S( 0.41)
      H   18            1S( 0.41)
      H   19            1S( 0.40)
      H   20            1S( 0.40)
      H   21            1S( 0.40)
      H   22            1S( 0.40)
      H   23            1S( 0.40)
      H   24            1S( 0.40)
      H   25            1S( 0.40)
      H   26            1S( 0.40)
      H   27            1S( 0.40)
      H   28            1S( 0.40)
      H   29            1S( 0.40)
      H   30            1S( 0.40)
      H   31            1S( 0.40)
      H   32            1S( 0.40)
      H   33            1S( 0.40)
      H   34            1S( 0.40)
      H   35            1S( 0.39)
      H   36            1S( 0.40)
      H   37            1S( 0.44)


 NBO analysis skipped by request.
 1\1\GINC-NODE309\SP\UB3LYP\6-311++G(d,p)\C12H24S1(1-,2)\VSC10255\13-De
 c-2020\0\\# B3LYP/6-311++G(d,p) empiricaldispersion=gd3bj scf=xqc pop=
 npa geom=check\\CID_87830970_JID_3776_Energie_anion\\-1,2\C,0,0.931405
 4909,0.0178977489,0.0556225256\C,0,0.7136708247,1.4399762621,0.4838569
 29\C,0,-0.2073450108,2.2635554314,-0.0219140635\C,0,-0.406808234,3.693
 4598133,0.3979145787\C,0,-0.0030207974,4.7172032679,-0.6839986645\C,0,
 -0.7253777797,4.5560273868,-2.0303050779\C,0,-2.2595620369,4.608040527
 ,-1.9564843108\C,0,-2.8360947518,5.8864447865,-1.3281089334\C,0,-2.411
 5035215,7.1944676797,-2.0144607299\C,0,-2.7421865311,7.2813694512,-3.5
 127488392\C,0,-4.2246808148,7.0963381326,-3.8639300941\C,0,-5.18667606
 5,8.0493556399,-3.1499934523\S,0,-4.9409407489,9.8379383082,-3.5255848
 845\H,0,0.2342085491,-0.2720344016,-0.7378612728\H,0,0.7983962975,-0.6
 776369037,0.8953234393\H,0,1.9530153779,-0.1341518085,-0.3182699082\H,
 0,1.3691827516,1.8107056907,1.2745296343\H,0,-0.8627161704,1.890492582
 5,-0.8108111996\H,0,-1.4604220237,3.8531159606,0.6681603531\H,0,0.1777
 897186,3.8918631175,1.3048851486\H,0,-0.1757324903,5.7272645573,-0.289
 6124228\H,0,1.0775694032,4.6324763447,-0.8556833693\H,0,-0.365329101,5
 .3363759947,-2.713145506\H,0,-0.4296441788,3.6024100045,-2.4856458725\
 H,0,-2.6610383662,4.4850994971,-2.970759601\H,0,-2.628612034,3.7452913
 235,-1.3866570699\H,0,-3.9314684018,5.8105638695,-1.328133107\H,0,-2.5
 439142041,5.9385293865,-0.2714628891\H,0,-2.8820028045,8.0336678175,-1
 .4838646163\H,0,-1.3307857608,7.3383999615,-1.8901690731\H,0,-2.403604
 2922,8.2523765485,-3.8951561986\H,0,-2.1628974533,6.5282189775,-4.0608
 664869\H,0,-4.3514308942,7.2106183987,-4.9467923546\H,0,-4.5373447129,
 6.0718893947,-3.6175675528\H,0,-6.2148371282,7.8531019392,-3.468929653
 8\H,0,-5.1580723605,7.913051265,-2.0653418866\H,0,-3.7531397448,9.9796
 860466,-2.9005435175\\Version=ES64L-G16RevA.03\State=2-A\HF=-870.12267
 99\S2=0.75005\S2-1=0.\S2A=0.75\RMSD=5.399e-12\Dipole=0.1340526,0.88906
 41,-0.2287655\Quadrupole=1.5210057,-21.4028567,19.8818511,36.0646238,-
 16.186006,20.1631291\PG=C01 [X(C12H24S1)]\\@


 THOSE WHO ARE UNABLE TO LEARN FROM PAST MEETINGS
 ARE CONDEMNED TO REPEAT THEM.
 Job cpu time:       0 days  0 hours 54 minutes 33.5 seconds.
 Elapsed time:       0 days  0 hours 13 minutes 42.0 seconds.
 File lengths (MBytes):  RWF=    260 Int=      0 D2E=      0 Chk=     24 Scr=      8
 Normal termination of Gaussian 16 at Sun Dec 13 12:57:56 2020.
