 Entering Gaussian System, Link 0=g16
 Initial command:
 /apps/brussel/CO7/ivybridge-ib/software/Gaussian/G16.A.03-intel-2017b/g16/l1.exe "/scratch/brussel/102/vsc10255/3544754[2261].master01.hydra.brussel.vsc/Gau-51881.inp" -scrdir="/scratch/brussel/102/vsc10255/3544754[2261].master01.hydra.brussel.vsc/"
 Entering Link 1 = /apps/brussel/CO7/ivybridge-ib/software/Gaussian/G16.A.03-intel-2017b/g16/l1.exe.bin PID=     51886.
  
 Copyright (c) 1988,1990,1992,1993,1995,1998,2003,2009,2016,
            Gaussian, Inc.  All Rights Reserved.
  
 This is part of the Gaussian(R) 16 program.  It is based on
 the Gaussian(R) 09 system (copyright 2009, Gaussian, Inc.),
 the Gaussian(R) 03 system (copyright 2003, Gaussian, Inc.),
 the Gaussian(R) 98 system (copyright 1998, Gaussian, Inc.),
 the Gaussian(R) 94 system (copyright 1995, Gaussian, Inc.),
 the Gaussian 92(TM) system (copyright 1992, Gaussian, Inc.),
 the Gaussian 90(TM) system (copyright 1990, Gaussian, Inc.),
 the Gaussian 88(TM) system (copyright 1988, Gaussian, Inc.),
 the Gaussian 86(TM) system (copyright 1986, Carnegie Mellon
 University), and the Gaussian 82(TM) system (copyright 1983,
 Carnegie Mellon University). Gaussian is a federally registered
 trademark of Gaussian, Inc.
  
 This software contains proprietary and confidential information,
 including trade secrets, belonging to Gaussian, Inc.
  
 This software is provided under written license and may be
 used, copied, transmitted, or stored only in accord with that
 written license.
  
 The following legend is applicable only to US Government
 contracts under FAR:
  
                    RESTRICTED RIGHTS LEGEND
  
 Use, reproduction and disclosure by the US Government is
 subject to restrictions as set forth in subparagraphs (a)
 and (c) of the Commercial Computer Software - Restricted
 Rights clause in FAR 52.227-19.
  
 Gaussian, Inc.
 340 Quinnipiac St., Bldg. 40, Wallingford CT 06492
  
  
 ---------------------------------------------------------------
 Warning -- This program may not be used in any manner that
 competes with the business of Gaussian, Inc. or will provide
 assistance to any competitor of Gaussian, Inc.  The licensee
 of this program is prohibited from giving any competitor of
 Gaussian, Inc. access to this program.  By using this program,
 the user acknowledges that Gaussian, Inc. is engaged in the
 business of creating and licensing software in the field of
 computational chemistry and represents and warrants to the
 licensee that it is not a competitor of Gaussian, Inc. and that
 it will not use this program in any manner prohibited above.
 ---------------------------------------------------------------
  

 Cite this work as:
 Gaussian 16, Revision A.03,
 M. J. Frisch, G. W. Trucks, H. B. Schlegel, G. E. Scuseria, 
 M. A. Robb, J. R. Cheeseman, G. Scalmani, V. Barone, 
 G. A. Petersson, H. Nakatsuji, X. Li, M. Caricato, A. V. Marenich, 
 J. Bloino, B. G. Janesko, R. Gomperts, B. Mennucci, H. P. Hratchian, 
 J. V. Ortiz, A. F. Izmaylov, J. L. Sonnenberg, D. Williams-Young, 
 F. Ding, F. Lipparini, F. Egidi, J. Goings, B. Peng, A. Petrone, 
 T. Henderson, D. Ranasinghe, V. G. Zakrzewski, J. Gao, N. Rega, 
 G. Zheng, W. Liang, M. Hada, M. Ehara, K. Toyota, R. Fukuda, 
 J. Hasegawa, M. Ishida, T. Nakajima, Y. Honda, O. Kitao, H. Nakai, 
 T. Vreven, K. Throssell, J. A. Montgomery, Jr., J. E. Peralta, 
 F. Ogliaro, M. J. Bearpark, J. J. Heyd, E. N. Brothers, K. N. Kudin, 
 V. N. Staroverov, T. A. Keith, R. Kobayashi, J. Normand, 
 K. Raghavachari, A. P. Rendell, J. C. Burant, S. S. Iyengar, 
 J. Tomasi, M. Cossi, J. M. Millam, M. Klene, C. Adamo, R. Cammi, 
 J. W. Ochterski, R. L. Martin, K. Morokuma, O. Farkas, 
 J. B. Foresman, and D. J. Fox, Gaussian, Inc., Wallingford CT, 2016.
 
 ******************************************
 Gaussian 16:  ES64L-G16RevA.03 25-Dec-2016
                 9-Dec-2020 
 ******************************************
 %chk=JID_2261.chk
 %mem=8GB
 %nprocshared=4
 Will use up to    4 processors via shared memory.
 -----------------------------------------------------------
 # opt freq B3LYP/6-31G(d) empiricaldispersion=gd3bj scf=xqc
 -----------------------------------------------------------
 1/18=20,19=15,26=3,38=1/1,3;
 2/9=110,12=2,17=6,18=5,40=1/2;
 3/5=1,6=6,7=1,11=2,25=1,30=1,71=1,74=-5,124=41/1,2,3;
 4//1;
 5/5=2,8=3,13=1,38=5/2,8;
 6/7=2,8=2,9=2,10=2,28=1/1;
 7//1,2,3,16;
 1/18=20,19=15,26=3/3(2);
 2/9=110/2;
 99//99;
 2/9=110/2;
 3/5=1,6=6,7=1,11=2,25=1,30=1,71=1,74=-5,124=41/1,2,3;
 4/5=5,16=3,69=1/1;
 5/5=2,8=3,13=1,38=5/2,8;
 7//1,2,3,16;
 1/18=20,19=15,26=3/3(-5);
 2/9=110/2;
 6/7=2,8=2,9=2,10=2,19=2,28=1/1;
 99/9=1/99;
 ------------------------------
 CID_82512105_JID_2261_neutraal
 ------------------------------
 Symbolic Z-matrix:
 Charge =  0 Multiplicity = 1
 C                     0.99323   0.00638  -0.09957 
 C                     0.74744   0.04372  -1.55742 
 C                    -0.0162   -0.80128  -2.33488 
 N                     0.10007  -0.3176   -3.60777 
 C                     0.91999   0.77185  -3.56486 
 N                     1.32014   1.02036  -2.3384 
 C                    -0.49947  -0.89005  -4.79485 
 C                    -1.96623  -0.49608  -4.98961 
 C                    -2.17326   0.97252  -5.35151 
 C                    -1.61601   1.28323  -6.71161 
 O                    -2.03342   0.85627  -7.77426 
 O                    -0.52294   2.06453  -6.66216 
 H                     0.55824  -0.8896    0.35411 
 H                     0.55064   0.88379   0.38173 
 H                     2.06819   0.00468   0.10545 
 H                    -0.60616  -1.6737   -2.09111 
 H                     1.18806   1.34686  -4.44203 
 H                     0.11496  -0.60942  -5.65719 
 H                    -0.42413  -1.97917  -4.68955 
 H                    -2.38812  -1.12514  -5.78338 
 H                    -2.53275  -0.71641  -4.07657 
 H                    -3.24372   1.20698  -5.37966 
 H                    -1.7339    1.63917  -4.60229 
 H                    -0.27429   2.19927  -7.60163 
 

 GradGradGradGradGradGradGradGradGradGradGradGradGradGradGradGradGradGrad
 Berny optimization.
 Initialization pass.
                           ----------------------------
                           !    Initial Parameters    !
                           ! (Angstroms and Degrees)  !
 --------------------------                            --------------------------
 ! Name  Definition              Value          Derivative Info.                !
 --------------------------------------------------------------------------------
 ! R1    R(1,2)                  1.4789         estimate D2E/DX2                !
 ! R2    R(1,13)                 1.0945         estimate D2E/DX2                !
 ! R3    R(1,14)                 1.0943         estimate D2E/DX2                !
 ! R4    R(1,15)                 1.0943         estimate D2E/DX2                !
 ! R5    R(2,3)                  1.379          estimate D2E/DX2                !
 ! R6    R(2,6)                  1.3754         estimate D2E/DX2                !
 ! R7    R(3,4)                  1.3666         estimate D2E/DX2                !
 ! R8    R(3,16)                 1.081          estimate D2E/DX2                !
 ! R9    R(4,5)                  1.3642         estimate D2E/DX2                !
 ! R10   R(4,7)                  1.4479         estimate D2E/DX2                !
 ! R11   R(5,6)                  1.3138         estimate D2E/DX2                !
 ! R12   R(5,17)                 1.0826         estimate D2E/DX2                !
 ! R13   R(7,8)                  1.5312         estimate D2E/DX2                !
 ! R14   R(7,18)                 1.0954         estimate D2E/DX2                !
 ! R15   R(7,19)                 1.0968         estimate D2E/DX2                !
 ! R16   R(8,9)                  1.5266         estimate D2E/DX2                !
 ! R17   R(8,20)                 1.0972         estimate D2E/DX2                !
 ! R18   R(8,21)                 1.0969         estimate D2E/DX2                !
 ! R19   R(9,10)                 1.5023         estimate D2E/DX2                !
 ! R20   R(9,22)                 1.0962         estimate D2E/DX2                !
 ! R21   R(9,23)                 1.0949         estimate D2E/DX2                !
 ! R22   R(10,11)                1.2189         estimate D2E/DX2                !
 ! R23   R(10,12)                1.3445         estimate D2E/DX2                !
 ! R24   R(12,24)                0.9811         estimate D2E/DX2                !
 ! A1    A(2,1,13)             111.2995         estimate D2E/DX2                !
 ! A2    A(2,1,14)             110.25           estimate D2E/DX2                !
 ! A3    A(2,1,15)             110.3635         estimate D2E/DX2                !
 ! A4    A(13,1,14)            108.261          estimate D2E/DX2                !
 ! A5    A(13,1,15)            108.1485         estimate D2E/DX2                !
 ! A6    A(14,1,15)            108.4302         estimate D2E/DX2                !
 ! A7    A(1,2,3)              129.2222         estimate D2E/DX2                !
 ! A8    A(1,2,6)              120.5615         estimate D2E/DX2                !
 ! A9    A(3,2,6)              110.2161         estimate D2E/DX2                !
 ! A10   A(2,3,4)              105.1371         estimate D2E/DX2                !
 ! A11   A(2,3,16)             132.0368         estimate D2E/DX2                !
 ! A12   A(4,3,16)             122.8258         estimate D2E/DX2                !
 ! A13   A(3,4,5)              107.7268         estimate D2E/DX2                !
 ! A14   A(3,4,7)              126.0492         estimate D2E/DX2                !
 ! A15   A(5,4,7)              126.1866         estimate D2E/DX2                !
 ! A16   A(4,5,6)              111.3141         estimate D2E/DX2                !
 ! A17   A(4,5,17)             123.1979         estimate D2E/DX2                !
 ! A18   A(6,5,17)             125.487          estimate D2E/DX2                !
 ! A19   A(2,6,5)              105.6009         estimate D2E/DX2                !
 ! A20   A(4,7,8)              113.5294         estimate D2E/DX2                !
 ! A21   A(4,7,18)             108.1728         estimate D2E/DX2                !
 ! A22   A(4,7,19)             106.5859         estimate D2E/DX2                !
 ! A23   A(8,7,18)             111.7937         estimate D2E/DX2                !
 ! A24   A(8,7,19)             109.482          estimate D2E/DX2                !
 ! A25   A(18,7,19)            106.9447         estimate D2E/DX2                !
 ! A26   A(7,8,9)              114.0526         estimate D2E/DX2                !
 ! A27   A(7,8,20)             108.231          estimate D2E/DX2                !
 ! A28   A(7,8,21)             109.706          estimate D2E/DX2                !
 ! A29   A(9,8,20)             109.1415         estimate D2E/DX2                !
 ! A30   A(9,8,21)             108.6944         estimate D2E/DX2                !
 ! A31   A(20,8,21)            106.765          estimate D2E/DX2                !
 ! A32   A(8,9,10)             111.3014         estimate D2E/DX2                !
 ! A33   A(8,9,22)             110.1372         estimate D2E/DX2                !
 ! A34   A(8,9,23)             111.6596         estimate D2E/DX2                !
 ! A35   A(10,9,22)            107.1416         estimate D2E/DX2                !
 ! A36   A(10,9,23)            110.1657         estimate D2E/DX2                !
 ! A37   A(22,9,23)            106.2127         estimate D2E/DX2                !
 ! A38   A(9,10,11)            126.1433         estimate D2E/DX2                !
 ! A39   A(9,10,12)            112.8581         estimate D2E/DX2                !
 ! A40   A(11,10,12)           120.932          estimate D2E/DX2                !
 ! A41   A(10,12,24)           104.5148         estimate D2E/DX2                !
 ! D1    D(13,1,2,3)             6.0791         estimate D2E/DX2                !
 ! D2    D(13,1,2,6)          -173.7385         estimate D2E/DX2                !
 ! D3    D(14,1,2,3)          -114.0737         estimate D2E/DX2                !
 ! D4    D(14,1,2,6)            66.1088         estimate D2E/DX2                !
 ! D5    D(15,1,2,3)           126.1659         estimate D2E/DX2                !
 ! D6    D(15,1,2,6)           -53.6516         estimate D2E/DX2                !
 ! D7    D(1,2,3,4)           -179.9661         estimate D2E/DX2                !
 ! D8    D(1,2,3,16)            -0.1382         estimate D2E/DX2                !
 ! D9    D(6,2,3,4)             -0.1336         estimate D2E/DX2                !
 ! D10   D(6,2,3,16)           179.6943         estimate D2E/DX2                !
 ! D11   D(1,2,6,5)            179.5408         estimate D2E/DX2                !
 ! D12   D(3,2,6,5)             -0.3085         estimate D2E/DX2                !
 ! D13   D(2,3,4,5)              0.5122         estimate D2E/DX2                !
 ! D14   D(2,3,4,7)            178.3936         estimate D2E/DX2                !
 ! D15   D(16,3,4,5)          -179.3357         estimate D2E/DX2                !
 ! D16   D(16,3,4,7)            -1.4544         estimate D2E/DX2                !
 ! D17   D(3,4,5,6)             -0.7492         estimate D2E/DX2                !
 ! D18   D(3,4,5,17)           179.6055         estimate D2E/DX2                !
 ! D19   D(7,4,5,6)           -178.6269         estimate D2E/DX2                !
 ! D20   D(7,4,5,17)             1.7278         estimate D2E/DX2                !
 ! D21   D(3,4,7,8)             81.7087         estimate D2E/DX2                !
 ! D22   D(3,4,7,18)          -153.6022         estimate D2E/DX2                !
 ! D23   D(3,4,7,19)           -38.9042         estimate D2E/DX2                !
 ! D24   D(5,4,7,8)           -100.7919         estimate D2E/DX2                !
 ! D25   D(5,4,7,18)            23.8972         estimate D2E/DX2                !
 ! D26   D(5,4,7,19)           138.5952         estimate D2E/DX2                !
 ! D27   D(4,5,6,2)              0.6448         estimate D2E/DX2                !
 ! D28   D(17,5,6,2)          -179.7197         estimate D2E/DX2                !
 ! D29   D(4,7,8,9)             69.5487         estimate D2E/DX2                !
 ! D30   D(4,7,8,20)          -168.7783         estimate D2E/DX2                !
 ! D31   D(4,7,8,21)           -52.6388         estimate D2E/DX2                !
 ! D32   D(18,7,8,9)           -53.1657         estimate D2E/DX2                !
 ! D33   D(18,7,8,20)           68.5073         estimate D2E/DX2                !
 ! D34   D(18,7,8,21)         -175.3532         estimate D2E/DX2                !
 ! D35   D(19,7,8,9)          -171.4857         estimate D2E/DX2                !
 ! D36   D(19,7,8,20)          -49.8127         estimate D2E/DX2                !
 ! D37   D(19,7,8,21)           66.3268         estimate D2E/DX2                !
 ! D38   D(7,8,9,10)            66.8108         estimate D2E/DX2                !
 ! D39   D(7,8,9,22)          -174.5091         estimate D2E/DX2                !
 ! D40   D(7,8,9,23)           -56.7603         estimate D2E/DX2                !
 ! D41   D(20,8,9,10)          -54.3581         estimate D2E/DX2                !
 ! D42   D(20,8,9,22)           64.322          estimate D2E/DX2                !
 ! D43   D(20,8,9,23)         -177.9291         estimate D2E/DX2                !
 ! D44   D(21,8,9,10)         -170.4479         estimate D2E/DX2                !
 ! D45   D(21,8,9,22)          -51.7679         estimate D2E/DX2                !
 ! D46   D(21,8,9,23)           65.981          estimate D2E/DX2                !
 ! D47   D(8,9,10,11)           66.6569         estimate D2E/DX2                !
 ! D48   D(8,9,10,12)         -110.3771         estimate D2E/DX2                !
 ! D49   D(22,9,10,11)         -53.8042         estimate D2E/DX2                !
 ! D50   D(22,9,10,12)         129.1618         estimate D2E/DX2                !
 ! D51   D(23,9,10,11)        -168.9254         estimate D2E/DX2                !
 ! D52   D(23,9,10,12)          14.0406         estimate D2E/DX2                !
 ! D53   D(9,10,12,24)        -179.1593         estimate D2E/DX2                !
 ! D54   D(11,10,12,24)          3.6328         estimate D2E/DX2                !
 --------------------------------------------------------------------------------
 Trust Radius=3.00D-01 FncErr=1.00D-07 GrdErr=1.00D-06 EigMax=2.50D+02 EigMin=1.00D-04
 Number of steps in this run=    129 maximum allowed number of steps=    144.
 GradGradGradGradGradGradGradGradGradGradGradGradGradGradGradGradGradGrad

                          Input orientation:                          
 ---------------------------------------------------------------------
 Center     Atomic      Atomic             Coordinates (Angstroms)
 Number     Number       Type             X           Y           Z
 ---------------------------------------------------------------------
      1          6           0        0.993230    0.006380   -0.099570
      2          6           0        0.747440    0.043720   -1.557420
      3          6           0       -0.016200   -0.801280   -2.334880
      4          7           0        0.100070   -0.317600   -3.607770
      5          6           0        0.919990    0.771850   -3.564860
      6          7           0        1.320140    1.020360   -2.338400
      7          6           0       -0.499470   -0.890050   -4.794850
      8          6           0       -1.966230   -0.496080   -4.989610
      9          6           0       -2.173260    0.972520   -5.351510
     10          6           0       -1.616010    1.283230   -6.711610
     11          8           0       -2.033420    0.856270   -7.774260
     12          8           0       -0.522940    2.064530   -6.662160
     13          1           0        0.558240   -0.889600    0.354110
     14          1           0        0.550640    0.883790    0.381730
     15          1           0        2.068190    0.004680    0.105450
     16          1           0       -0.606160   -1.673700   -2.091110
     17          1           0        1.188060    1.346860   -4.442030
     18          1           0        0.114960   -0.609420   -5.657190
     19          1           0       -0.424130   -1.979170   -4.689550
     20          1           0       -2.388120   -1.125140   -5.783380
     21          1           0       -2.532750   -0.716410   -4.076570
     22          1           0       -3.243720    1.206980   -5.379660
     23          1           0       -1.733900    1.639170   -4.602290
     24          1           0       -0.274290    2.199270   -7.601630
 ---------------------------------------------------------------------
                    Distance matrix (angstroms):
                    1          2          3          4          5
     1  C    0.000000
     2  C    1.478896   0.000000
     3  C    2.582223   1.378991   0.000000
     4  N    3.634579   2.180270   1.366643   0.000000
     5  C    3.549584   2.142373   2.205457   1.364189   0.000000
     6  N    2.479392   1.375406   2.259245   2.211336   1.313804
     7  C    5.007733   3.592724   2.508562   1.447863   2.507918
     8  C    5.737888   4.408550   3.308074   2.492174   3.459454
     9  C    6.208298   4.877323   4.110880   3.142144   3.577790
    10  C    7.222019   5.804133   5.104933   3.891196   4.073677
    11  O    8.293599   6.858755   6.033532   4.825908   5.142840
    12  O    7.042893   5.635238   5.214883   3.923262   3.653264
    13  H    1.094451   2.135610   2.751081   4.029094   4.271956
    14  H    1.094250   2.122440   3.246650   4.190759   3.965416
    15  H    1.094338   2.123921   3.308997   4.214898   3.921491
    16  H    3.057278   2.250909   1.081015   2.153608   3.237559
    17  H    4.548824   3.195825   3.241115   2.156418   1.082555
    18  H    5.660186   4.199373   3.330429   2.070146   2.633216
    19  H    5.198003   3.908311   2.664264   2.050817   3.261855
    20  H    6.709662   5.390427   4.197981   3.402424   4.411802
    21  H    5.363906   4.205183   3.061652   2.703805   3.794493
    22  H    6.875503   5.647305   4.870388   4.079812   4.562819
    23  H    5.511599   4.239545   3.747991   2.860326   2.978529
    24  H    7.918098   6.497908   6.067006   4.735578   4.445148
                    6          7          8          9         10
     6  N    0.000000
     7  C    3.604829   0.000000
     8  C    4.486506   1.531185   0.000000
     9  C    4.613563   2.565270   1.526636   0.000000
    10  C    5.273997   3.105443   2.500776   1.502312   0.000000
    11  O    6.389199   3.778825   3.096392   2.429565   1.218914
    12  O    4.814783   3.495274   3.381898   2.373572   1.344499
    13  H    3.387927   5.256476   5.923103   6.594140   7.705385
    14  H    2.830175   5.571913   6.090153   6.348035   7.427610
    15  H    2.750198   5.604138   6.518201   6.978899   7.853682
    16  H    3.321106   2.817037   3.411434   4.482019   5.577836
    17  H    2.132910   2.824182   3.694025   3.502250   3.608026
    18  H    3.888831   1.095403   2.188575   2.798558   2.773118
    19  H    4.191368   1.096789   2.160478   3.494298   4.019025
    20  H    5.497477   2.144635   1.097168   2.152407   2.694070
    21  H    4.569723   2.163401   1.096874   2.146436   3.432551
    22  H    5.487523   3.502920   2.164378   1.096197   2.104601
    23  H    3.851660   2.820966   2.182495   1.094893   2.142387
    24  H    5.624378   4.180026   4.117065   3.189678   1.852425
                   11         12         13         14         15
    11  O    0.000000
    12  O    2.231190   0.000000
    13  H    8.708339   7.689205   0.000000
    14  H    8.555600   7.222403   1.773621   0.000000
    15  H    8.924026   7.533756   1.772433   1.775422   0.000000
    16  H    6.382477   5.905573   2.819529   3.740839   3.846295
    17  H    4.660726   2.893363   5.329295   4.887678   4.822411
    18  H    3.353471   2.926925   6.034130   6.236028   6.115574
    19  H    4.488315   4.500274   5.252687   5.904625   5.756678
    20  H    2.831148   3.798045   6.812144   7.119037   7.470844
    21  H    4.049144   4.296305   5.405103   5.651935   6.259226
    22  H    2.705907   3.127754   7.192125   6.906174   7.729705
    23  H    3.280859   2.427019   6.017847   5.534454   6.268194
    24  H    2.219907   0.981114   8.574848   8.132960   8.348804
                   16         17         18         19         20
    16  H    0.000000
    17  H    4.227273   0.000000
    18  H    3.790730   2.540706   0.000000
    19  H    2.622658   3.704443   1.761579   0.000000
    20  H    4.136322   4.549623   2.558769   2.404805   0.000000
    21  H    2.927491   4.270254   3.085478   2.533098   1.761016
    22  H    5.105840   4.532040   3.828454   4.310208   2.516709
    23  H    4.307311   2.940915   3.096329   3.849090   3.076424
    24  H    6.743580   3.584431   3.438183   5.095294   4.338895
                   21         22         23         24
    21  H    0.000000
    22  H    2.429599   0.000000
    23  H    2.542302   1.752327   0.000000
    24  H    5.101753   3.839180   3.382339   0.000000
 Stoichiometry    C8H12N2O2
 Framework group  C1[X(C8H12N2O2)]
 Deg. of freedom    66
 Full point group                 C1      NOp   1
 Largest Abelian subgroup         C1      NOp   1
 Largest concise Abelian subgroup C1      NOp   1
                         Standard orientation:                         
 ---------------------------------------------------------------------
 Center     Atomic      Atomic             Coordinates (Angstroms)
 Number     Number       Type             X           Y           Z
 ---------------------------------------------------------------------
      1          6           0        4.313231    0.052626    0.535587
      2          6           0        2.898843    0.115729    0.108199
      3          6           0        2.031660   -0.913794   -0.191286
      4          7           0        0.856000   -0.303637   -0.527802
      5          6           0        1.046158    1.044070   -0.435404
      6          7           0        2.267953    1.328284   -0.044863
      7          6           0       -0.357418   -0.968483   -0.954303
      8          6           0       -1.198057   -1.509464    0.205522
      9          6           0       -1.854658   -0.425472    1.056672
     10          6           0       -2.899142    0.322202    0.277585
     11          8           0       -3.951005   -0.133929   -0.136273
     12          8           0       -2.539554    1.588412    0.003565
     13          1           0        4.693256   -0.973183    0.502133
     14          1           0        4.416223    0.423195    1.560016
     15          1           0        4.936838    0.668689   -0.119512
     16          1           0        2.156089   -1.987623   -0.193161
     17          1           0        0.272110    1.768326   -0.655012
     18          1           0       -0.926994   -0.272069   -1.579202
     19          1           0       -0.048726   -1.798941   -1.600829
     20          1           0       -1.976539   -2.161609   -0.209751
     21          1           0       -0.573578   -2.135755    0.854303
     22          1           0       -2.356987   -0.876422    1.920361
     23          1           0       -1.115326    0.272403    1.463057
     24          1           0       -3.303264    1.960121   -0.487520
 ---------------------------------------------------------------------
 Rotational constants (GHZ):           2.4146188           0.4479646           0.4093344
 Standard basis: 6-31G(d) (6D, 7F)
 There are   204 symmetry adapted cartesian basis functions of A   symmetry.
 There are   204 symmetry adapted basis functions of A   symmetry.
   204 basis functions,   384 primitive gaussians,   204 cartesian basis functions
    45 alpha electrons       45 beta electrons
       nuclear repulsion energy       699.7599133978 Hartrees.
 NAtoms=   24 NActive=   24 NUniq=   24 SFac= 1.00D+00 NAtFMM=   60 NAOKFM=F Big=F
 Integral buffers will be    131072 words long.
 Raffenetti 2 integral format.
 Two-electron integral symmetry is turned on.
 Nuclear repulsion after empirical dispersion term =      699.7198792165 Hartrees.
 One-electron integrals computed using PRISM.
 NBasis=   204 RedAO= T EigKep=  1.37D-03  NBF=   204
 NBsUse=   204 1.00D-06 EigRej= -1.00D+00 NBFU=   204
 ExpMin= 1.61D-01 ExpMax= 5.48D+03 ExpMxC= 8.25D+02 IAcc=3 IRadAn=         5 AccDes= 0.00D+00
 Harris functional with IExCor=  402 and IRadAn=       5 diagonalized for initial guess.
 HarFok:  IExCor=  402 AccDes= 0.00D+00 IRadAn=         5 IDoV= 1 UseB2=F ITyADJ=14
 ICtDFT=  3500011 ScaDFX=  1.000000  1.000000  1.000000  1.000000
 FoFCou: FMM=F IPFlag=           0 FMFlag=      100000 FMFlg1=           0
         NFxFlg=           0 DoJE=T BraDBF=F KetDBF=T FulRan=T
         wScrn=  0.000000 ICntrl=       500 IOpCl=  0 I1Cent=   200000004 NGrid=           0
         NMat0=    1 NMatS0=      1 NMatT0=    0 NMatD0=    1 NMtDS0=    0 NMtDT0=    0
 Petite list used in FoFCou.
 Keep R1 ints in memory in canonical form, NReq=222933444.
 Requested convergence on RMS density matrix=1.00D-08 within  32 cycles.
 Requested convergence on MAX density matrix=1.00D-06.
 Requested convergence on             energy=1.00D-06.
 No special actions if energy rises.
 Integral accuracy reduced to 1.0D-05 until final iterations.
 Initial convergence to 1.0D-05 achieved.  Increase integral accuracy.
 SCF Done:  E(RB3LYP) =  -572.080785280     A.U. after   15 cycles
            NFock= 15  Conv=0.36D-08     -V/T= 2.0091
 QCSCF skips out because SCF is already converged.

 **********************************************************************

            Population analysis using the SCF density.

 **********************************************************************

 Orbital symmetries:
       Occupied  (A) (A) (A) (A) (A) (A) (A) (A) (A) (A) (A) (A)
                 (A) (A) (A) (A) (A) (A) (A) (A) (A) (A) (A) (A)
                 (A) (A) (A) (A) (A) (A) (A) (A) (A) (A) (A) (A)
                 (A) (A) (A) (A) (A) (A) (A) (A) (A)
       Virtual   (A) (A) (A) (A) (A) (A) (A) (A) (A) (A) (A) (A)
                 (A) (A) (A) (A) (A) (A) (A) (A) (A) (A) (A) (A)
                 (A) (A) (A) (A) (A) (A) (A) (A) (A) (A) (A) (A)
                 (A) (A) (A) (A) (A) (A) (A) (A) (A) (A) (A) (A)
                 (A) (A) (A) (A) (A) (A) (A) (A) (A) (A) (A) (A)
                 (A) (A) (A) (A) (A) (A) (A) (A) (A) (A) (A) (A)
                 (A) (A) (A) (A) (A) (A) (A) (A) (A) (A) (A) (A)
                 (A) (A) (A) (A) (A) (A) (A) (A) (A) (A) (A) (A)
                 (A) (A) (A) (A) (A) (A) (A) (A) (A) (A) (A) (A)
                 (A) (A) (A) (A) (A) (A) (A) (A) (A) (A) (A) (A)
                 (A) (A) (A) (A) (A) (A) (A) (A) (A) (A) (A) (A)
                 (A) (A) (A) (A) (A) (A) (A) (A) (A) (A) (A) (A)
                 (A) (A) (A) (A) (A) (A) (A) (A) (A) (A) (A) (A)
                 (A) (A) (A)
 The electronic state is 1-A.
 Alpha  occ. eigenvalues --  -19.21103 -19.14624 -14.38645 -14.29632 -10.33005
 Alpha  occ. eigenvalues --  -10.24323 -10.22580 -10.21213 -10.21190 -10.20069
 Alpha  occ. eigenvalues --  -10.19235 -10.16955  -1.12028  -1.01984  -1.01337
 Alpha  occ. eigenvalues --   -0.88535  -0.81462  -0.75720  -0.73984  -0.68932
 Alpha  occ. eigenvalues --   -0.65407  -0.60063  -0.57009  -0.56820  -0.52585
 Alpha  occ. eigenvalues --   -0.50002  -0.49515  -0.48516  -0.46549  -0.44406
 Alpha  occ. eigenvalues --   -0.43868  -0.42324  -0.42255  -0.41222  -0.39576
 Alpha  occ. eigenvalues --   -0.38366  -0.37334  -0.36798  -0.36576  -0.36295
 Alpha  occ. eigenvalues --   -0.32541  -0.28361  -0.25853  -0.25490  -0.21220
 Alpha virt. eigenvalues --   -0.00515   0.03389   0.06211   0.07235   0.09011
 Alpha virt. eigenvalues --    0.11626   0.12313   0.12823   0.13567   0.14151
 Alpha virt. eigenvalues --    0.15198   0.15673   0.16707   0.17581   0.19158
 Alpha virt. eigenvalues --    0.20271   0.21059   0.21388   0.23995   0.25716
 Alpha virt. eigenvalues --    0.27776   0.28883   0.31078   0.32927   0.35512
 Alpha virt. eigenvalues --    0.39080   0.44832   0.47344   0.49583   0.51144
 Alpha virt. eigenvalues --    0.51942   0.53316   0.55659   0.56032   0.57993
 Alpha virt. eigenvalues --    0.58516   0.60427   0.61090   0.64181   0.64265
 Alpha virt. eigenvalues --    0.65314   0.66013   0.66997   0.67210   0.71114
 Alpha virt. eigenvalues --    0.71627   0.72906   0.75005   0.76201   0.79594
 Alpha virt. eigenvalues --    0.80047   0.80957   0.82043   0.83128   0.84029
 Alpha virt. eigenvalues --    0.86233   0.86583   0.87112   0.87259   0.89460
 Alpha virt. eigenvalues --    0.89856   0.92224   0.92318   0.92777   0.94286
 Alpha virt. eigenvalues --    0.95906   0.97004   0.99369   0.99921   1.00762
 Alpha virt. eigenvalues --    1.02644   1.05569   1.06982   1.08040   1.13129
 Alpha virt. eigenvalues --    1.16862   1.20899   1.22860   1.29938   1.31086
 Alpha virt. eigenvalues --    1.35465   1.36451   1.37232   1.38714   1.40121
 Alpha virt. eigenvalues --    1.45128   1.51066   1.51924   1.53662   1.55223
 Alpha virt. eigenvalues --    1.55727   1.56180   1.59892   1.66817   1.69185
 Alpha virt. eigenvalues --    1.74587   1.76941   1.78331   1.81513   1.81964
 Alpha virt. eigenvalues --    1.83791   1.84626   1.85613   1.89191   1.91033
 Alpha virt. eigenvalues --    1.92782   1.94423   1.95506   1.99082   1.99876
 Alpha virt. eigenvalues --    2.00619   2.08948   2.09266   2.10602   2.10840
 Alpha virt. eigenvalues --    2.15455   2.18251   2.22279   2.24431   2.28123
 Alpha virt. eigenvalues --    2.28394   2.29400   2.33198   2.33642   2.36691
 Alpha virt. eigenvalues --    2.37503   2.39767   2.44663   2.46442   2.48739
 Alpha virt. eigenvalues --    2.49116   2.51710   2.59139   2.62918   2.64390
 Alpha virt. eigenvalues --    2.67383   2.69699   2.71792   2.74052   2.79742
 Alpha virt. eigenvalues --    2.81731   2.85625   2.95809   3.06261   3.06503
 Alpha virt. eigenvalues --    3.10045   3.16548   3.82378   3.97637   4.05391
 Alpha virt. eigenvalues --    4.10550   4.12634   4.16701   4.24905   4.28759
 Alpha virt. eigenvalues --    4.40801   4.46617   4.54334   4.57249
          Condensed to atoms (all electrons):
               1          2          3          4          5          6
     1  C    5.179909   0.387713  -0.079620   0.005205   0.007602  -0.071654
     2  C    0.387713   4.620492   0.563588  -0.048931  -0.098177   0.449763
     3  C   -0.079620   0.563588   5.040301   0.361052  -0.109487  -0.075142
     4  N    0.005205  -0.048931   0.361052   6.701918   0.395703  -0.076536
     5  C    0.007602  -0.098177  -0.109487   0.395703   4.765748   0.509135
     6  N   -0.071654   0.449763  -0.075142  -0.076536   0.509135   6.763392
     7  C   -0.000145   0.006561  -0.041675   0.266135  -0.031645   0.006274
     8  C    0.000002   0.000005  -0.001115  -0.063436  -0.001706  -0.000121
     9  C   -0.000000  -0.000018   0.000166  -0.001340   0.000310  -0.000117
    10  C    0.000000  -0.000000   0.000030  -0.000551  -0.000100   0.000004
    11  O   -0.000000  -0.000000   0.000000   0.000009  -0.000005  -0.000000
    12  O   -0.000000  -0.000002  -0.000005  -0.000325  -0.001367   0.000015
    13  H    0.359343  -0.026806  -0.000426   0.000022  -0.000227   0.003596
    14  H    0.363263  -0.028870   0.000914  -0.000037   0.000306  -0.001109
    15  H    0.362105  -0.026533   0.002402  -0.000037   0.000279  -0.000668
    16  H   -0.001123  -0.029854   0.358168  -0.048372   0.005039   0.005148
    17  H   -0.000271   0.004586   0.005394  -0.056511   0.370570  -0.035686
    18  H    0.000005  -0.000151   0.003535  -0.037507  -0.001809   0.000169
    19  H   -0.000009  -0.000058  -0.002075  -0.038350   0.002549  -0.000246
    20  H   -0.000000   0.000001  -0.000000   0.004363  -0.000056   0.000002
    21  H    0.000003  -0.000111   0.004029  -0.004335  -0.000123  -0.000001
    22  H    0.000000  -0.000002  -0.000037  -0.000005   0.000031   0.000001
    23  H   -0.000001  -0.000181  -0.000069   0.005570   0.003901  -0.000036
    24  H   -0.000000   0.000000   0.000000   0.000004   0.000026  -0.000000
               7          8          9         10         11         12
     1  C   -0.000145   0.000002  -0.000000   0.000000  -0.000000  -0.000000
     2  C    0.006561   0.000005  -0.000018  -0.000000  -0.000000  -0.000002
     3  C   -0.041675  -0.001115   0.000166   0.000030   0.000000  -0.000005
     4  N    0.266135  -0.063436  -0.001340  -0.000551   0.000009  -0.000325
     5  C   -0.031645  -0.001706   0.000310  -0.000100  -0.000005  -0.001367
     6  N    0.006274  -0.000121  -0.000117   0.000004  -0.000000   0.000015
     7  C    4.979146   0.355265  -0.045736  -0.005025  -0.000867   0.001564
     8  C    0.355265   5.064925   0.355008  -0.028685  -0.000835  -0.001221
     9  C   -0.045736   0.355008   5.223711   0.333520  -0.078528  -0.091107
    10  C   -0.005025  -0.028685   0.333520   4.356325   0.568735   0.272181
    11  O   -0.000867  -0.000835  -0.078528   0.568735   8.049960  -0.092611
    12  O    0.001564  -0.001221  -0.091107   0.272181  -0.092611   8.235984
    13  H   -0.000004   0.000000   0.000000   0.000000   0.000000  -0.000000
    14  H    0.000000  -0.000000  -0.000000  -0.000000  -0.000000   0.000000
    15  H    0.000004   0.000000   0.000000   0.000000   0.000000   0.000000
    16  H    0.000271  -0.000082   0.000014   0.000000   0.000000   0.000000
    17  H    0.000752  -0.000256  -0.000118   0.000139   0.000011   0.006324
    18  H    0.376451  -0.041261  -0.008515   0.006650   0.000237   0.001361
    19  H    0.374332  -0.043778   0.005444  -0.000083  -0.000029   0.000035
    20  H   -0.030349   0.359026  -0.039614  -0.005498   0.006496   0.000284
    21  H   -0.036010   0.373762  -0.035948   0.004634   0.000053  -0.000101
    22  H    0.004820  -0.022645   0.363680  -0.028812  -0.000881   0.002501
    23  H   -0.007325  -0.032014   0.348390  -0.024979   0.003054   0.003394
    24  H   -0.000079  -0.000309   0.011707  -0.008440   0.013464   0.213739
              13         14         15         16         17         18
     1  C    0.359343   0.363263   0.362105  -0.001123  -0.000271   0.000005
     2  C   -0.026806  -0.028870  -0.026533  -0.029854   0.004586  -0.000151
     3  C   -0.000426   0.000914   0.002402   0.358168   0.005394   0.003535
     4  N    0.000022  -0.000037  -0.000037  -0.048372  -0.056511  -0.037507
     5  C   -0.000227   0.000306   0.000279   0.005039   0.370570  -0.001809
     6  N    0.003596  -0.001109  -0.000668   0.005148  -0.035686   0.000169
     7  C   -0.000004   0.000000   0.000004   0.000271   0.000752   0.376451
     8  C    0.000000  -0.000000   0.000000  -0.000082  -0.000256  -0.041261
     9  C    0.000000  -0.000000   0.000000   0.000014  -0.000118  -0.008515
    10  C    0.000000  -0.000000   0.000000   0.000000   0.000139   0.006650
    11  O    0.000000  -0.000000   0.000000   0.000000   0.000011   0.000237
    12  O   -0.000000   0.000000   0.000000   0.000000   0.006324   0.001361
    13  H    0.579790  -0.029480  -0.028323   0.002092   0.000004   0.000000
    14  H   -0.029480   0.564432  -0.031232  -0.000055   0.000001  -0.000000
    15  H   -0.028323  -0.031232   0.557177  -0.000083  -0.000004  -0.000000
    16  H    0.002092  -0.000055  -0.000083   0.562924  -0.000097   0.000025
    17  H    0.000004   0.000001  -0.000004  -0.000097   0.539686   0.003373
    18  H    0.000000  -0.000000  -0.000000   0.000025   0.003373   0.550825
    19  H    0.000001   0.000001  -0.000001   0.002274  -0.000066  -0.030315
    20  H   -0.000000   0.000000  -0.000000  -0.000024  -0.000010  -0.000240
    21  H    0.000000  -0.000001   0.000000   0.000884   0.000001   0.004813
    22  H    0.000000   0.000000  -0.000000  -0.000000   0.000009   0.000064
    23  H   -0.000000   0.000001  -0.000000  -0.000001   0.000225   0.000145
    24  H    0.000000   0.000000  -0.000000   0.000000  -0.000046   0.000242
              19         20         21         22         23         24
     1  C   -0.000009  -0.000000   0.000003   0.000000  -0.000001  -0.000000
     2  C   -0.000058   0.000001  -0.000111  -0.000002  -0.000181   0.000000
     3  C   -0.002075  -0.000000   0.004029  -0.000037  -0.000069   0.000000
     4  N   -0.038350   0.004363  -0.004335  -0.000005   0.005570   0.000004
     5  C    0.002549  -0.000056  -0.000123   0.000031   0.003901   0.000026
     6  N   -0.000246   0.000002  -0.000001   0.000001  -0.000036  -0.000000
     7  C    0.374332  -0.030349  -0.036010   0.004820  -0.007325  -0.000079
     8  C   -0.043778   0.359026   0.373762  -0.022645  -0.032014  -0.000309
     9  C    0.005444  -0.039614  -0.035948   0.363680   0.348390   0.011707
    10  C   -0.000083  -0.005498   0.004634  -0.028812  -0.024979  -0.008440
    11  O   -0.000029   0.006496   0.000053  -0.000881   0.003054   0.013464
    12  O    0.000035   0.000284  -0.000101   0.002501   0.003394   0.213739
    13  H    0.000001  -0.000000   0.000000   0.000000  -0.000000   0.000000
    14  H    0.000001   0.000000  -0.000001   0.000000   0.000001   0.000000
    15  H   -0.000001  -0.000000   0.000000  -0.000000  -0.000000  -0.000000
    16  H    0.002274  -0.000024   0.000884  -0.000000  -0.000001   0.000000
    17  H   -0.000066  -0.000010   0.000001   0.000009   0.000225  -0.000046
    18  H   -0.030315  -0.000240   0.004813   0.000064   0.000145   0.000242
    19  H    0.570272  -0.001947  -0.002822  -0.000115   0.000124  -0.000000
    20  H   -0.001947   0.564474  -0.029526  -0.002315   0.005312  -0.000034
    21  H   -0.002822  -0.029526   0.569315  -0.005079  -0.002477   0.000010
    22  H   -0.000115  -0.002315  -0.005079   0.537594  -0.029976  -0.000368
    23  H    0.000124   0.005312  -0.002477  -0.029976   0.541326  -0.000434
    24  H   -0.000000  -0.000034   0.000010  -0.000368  -0.000434   0.360824
 Mulliken charges:
               1
     1  C   -0.512327
     2  C    0.226983
     3  C   -0.029929
     4  N   -0.363709
     5  C    0.183503
     6  N   -0.476183
     7  C   -0.172715
     8  C   -0.270528
     9  C   -0.340910
    10  C    0.559953
    11  O   -0.468262
    12  O   -0.550645
    13  H    0.140418
    14  H    0.161866
    15  H    0.164912
    16  H    0.142851
    17  H    0.161991
    18  H    0.171902
    19  H    0.164863
    20  H    0.169656
    21  H    0.159029
    22  H    0.181535
    23  H    0.186052
    24  H    0.409693
 Sum of Mulliken charges =  -0.00000
 Mulliken charges with hydrogens summed into heavy atoms:
               1
     1  C   -0.045131
     2  C    0.226983
     3  C    0.112922
     4  N   -0.363709
     5  C    0.345494
     6  N   -0.476183
     7  C    0.164050
     8  C    0.058157
     9  C    0.026678
    10  C    0.559953
    11  O   -0.468262
    12  O   -0.140953
 Electronic spatial extent (au):  <R**2>=           2697.4148
 Charge=              0.0000 electrons
 Dipole moment (field-independent basis, Debye):
    X=             -1.1847    Y=             -1.9570    Z=             -0.2624  Tot=              2.3027
 Quadrupole moment (field-independent basis, Debye-Ang):
   XX=            -81.4581   YY=            -68.4231   ZZ=            -68.2920
   XY=            -11.5436   XZ=              0.1768   YZ=             -1.8205
 Traceless Quadrupole moment (field-independent basis, Debye-Ang):
   XX=             -8.7337   YY=              4.3013   ZZ=              4.4324
   XY=            -11.5436   XZ=              0.1768   YZ=             -1.8205
 Octapole moment (field-independent basis, Debye-Ang**2):
  XXX=             22.9810  YYY=             -2.2293  ZZZ=              0.7663  XYY=            -28.5286
  XXY=             14.4410  XXZ=              5.2812  XZZ=            -16.5081  YZZ=              1.9485
  YYZ=             -6.7773  XYZ=              6.4718
 Hexadecapole moment (field-independent basis, Debye-Ang**3):
 XXXX=          -2970.4046 YYYY=           -467.6237 ZZZZ=           -215.8903 XXXY=           -154.0822
 XXXZ=             -0.1041 YYYX=            -72.3686 YYYZ=             -9.4261 ZZZX=              1.9926
 ZZZY=             -0.7502 XXYY=           -511.0888 XXZZ=           -485.0343 YYZZ=           -113.2728
 XXYZ=            -20.4464 YYXZ=             11.7851 ZZXY=             -3.9368
 N-N= 6.997198792165D+02 E-N=-2.731719952290D+03  KE= 5.669284047312D+02
 Calling FoFJK, ICntrl=      2127 FMM=F ISym2X=0 I1Cent= 0 IOpClX= 0 NMat=1 NMatS=1 NMatT=0.
 ***** Axes restored to original set *****
 -------------------------------------------------------------------
 Center     Atomic                   Forces (Hartrees/Bohr)
 Number     Number              X              Y              Z
 -------------------------------------------------------------------
      1        6          -0.000575407   -0.003103618    0.006875735
      2        6          -0.002173590   -0.002724989   -0.002080722
      3        6           0.002922218    0.002597826    0.013590566
      4        7           0.000081085    0.002024077   -0.020717015
      5        6           0.000405938    0.003077067    0.001755606
      6        7           0.003334328    0.003069492    0.001037375
      7        6          -0.000967126   -0.007654796    0.000677770
      8        6          -0.003295414   -0.005323181   -0.000966925
      9        6          -0.004947424    0.008691396    0.004439014
     10        6          -0.003759883   -0.007712790   -0.014265356
     11        8          -0.001254883    0.001252856    0.009874416
     12        8           0.007347967    0.007695446   -0.002590138
     13        1          -0.000445163   -0.000056484    0.000695271
     14        1           0.001284730    0.001122876    0.002897516
     15        1           0.000483049    0.001417311    0.001755662
     16        1           0.000346354    0.000536315   -0.001380839
     17        1          -0.002237271   -0.001915413   -0.001304420
     18        1          -0.001631792    0.000865745    0.000205527
     19        1          -0.001033214    0.000472445   -0.002773824
     20        1           0.000081810    0.001154294   -0.000299744
     21        1           0.001993281   -0.000474369    0.000163917
     22        1          -0.000270075   -0.002804185   -0.001095498
     23        1           0.002463332   -0.002234147   -0.000428326
     24        1           0.001847147    0.000026827    0.003934435
 -------------------------------------------------------------------
 Cartesian Forces:  Max     0.020717015 RMS     0.004634185

 GradGradGradGradGradGradGradGradGradGradGradGradGradGradGradGradGradGrad
 Berny optimization.
 FormGI is forming the generalized inverse of G from B-inverse, IUseBI=4.
 Internal  Forces:  Max     0.014454205 RMS     0.003177474
 Search for a local minimum.
 Step number   1 out of a maximum of  129
 All quantities printed in internal units (Hartrees-Bohrs-Radians)
 Mixed Optimization -- RFO/linear search
 Second derivative matrix not updated -- first step.
 ITU=  0
     Eigenvalues ---    0.00353   0.00414   0.00735   0.01045   0.01059
     Eigenvalues ---    0.01129   0.01595   0.01719   0.02201   0.02245
     Eigenvalues ---    0.02311   0.02426   0.02426   0.03431   0.04101
     Eigenvalues ---    0.04210   0.04828   0.05351   0.05391   0.07413
     Eigenvalues ---    0.07520   0.08563   0.09338   0.09771   0.12368
     Eigenvalues ---    0.12757   0.13000   0.16000   0.16000   0.16000
     Eigenvalues ---    0.16000   0.16000   0.16000   0.21889   0.21948
     Eigenvalues ---    0.21966   0.23380   0.24031   0.24972   0.24981
     Eigenvalues ---    0.25000   0.25000   0.29314   0.29736   0.32136
     Eigenvalues ---    0.33997   0.34030   0.34040   0.34106   0.34196
     Eigenvalues ---    0.34253   0.34303   0.34316   0.34326   0.34696
     Eigenvalues ---    0.35687   0.35872   0.38526   0.44054   0.46407
     Eigenvalues ---    0.50700   0.51169   0.51203   0.56209   0.60904
     Eigenvalues ---    0.95866
 RFO step:  Lambda=-5.01340714D-03 EMin= 3.53424527D-03
 Linear search not attempted -- first point.
 Iteration  1 RMS(Cart)=  0.11548323 RMS(Int)=  0.00214574
 Iteration  2 RMS(Cart)=  0.00562362 RMS(Int)=  0.00016912
 Iteration  3 RMS(Cart)=  0.00000905 RMS(Int)=  0.00016909
 Iteration  4 RMS(Cart)=  0.00000000 RMS(Int)=  0.00016909
 Variable       Old X    -DE/DX   Delta X   Delta X   Delta X     New X
                                 (Linear)    (Quad)   (Total)
    R1        2.79471   0.01219   0.00000   0.03463   0.03463   2.82934
    R2        2.06821   0.00051   0.00000   0.00147   0.00147   2.06968
    R3        2.06783   0.00165   0.00000   0.00475   0.00475   2.07258
    R4        2.06800   0.00080   0.00000   0.00230   0.00230   2.07030
    R5        2.60591   0.00118   0.00000   0.00195   0.00192   2.60784
    R6        2.59914   0.00509   0.00000   0.00969   0.00960   2.60874
    R7        2.58258   0.01445   0.00000   0.02788   0.02796   2.61054
    R8        2.04282  -0.00093   0.00000  -0.00257  -0.00257   2.04026
    R9        2.57794   0.00247   0.00000   0.00517   0.00524   2.58318
   R10        2.73606   0.00637   0.00000   0.01632   0.01632   2.75238
   R11        2.48273   0.00748   0.00000   0.01183   0.01180   2.49453
   R12        2.04573  -0.00051   0.00000  -0.00142  -0.00142   2.04431
   R13        2.89352   0.00003   0.00000   0.00010   0.00010   2.89363
   R14        2.07001  -0.00086   0.00000  -0.00246  -0.00246   2.06755
   R15        2.07263  -0.00081   0.00000  -0.00234  -0.00234   2.07030
   R16        2.88492   0.00457   0.00000   0.01511   0.01511   2.90003
   R17        2.07335  -0.00048   0.00000  -0.00138  -0.00138   2.07197
   R18        2.07279  -0.00080   0.00000  -0.00231  -0.00231   2.07048
   R19        2.83896   0.00457   0.00000   0.01400   0.01400   2.85296
   R20        2.07151  -0.00031   0.00000  -0.00089  -0.00089   2.07062
   R21        2.06905  -0.00066   0.00000  -0.00191  -0.00191   2.06713
   R22        2.30341  -0.00862   0.00000  -0.00894  -0.00894   2.29447
   R23        2.54073   0.01201   0.00000   0.02118   0.02118   2.56192
   R24        1.85404  -0.00330   0.00000  -0.00638  -0.00638   1.84766
    A1        1.94254   0.00002   0.00000   0.00198   0.00194   1.94449
    A2        1.92423   0.00315   0.00000   0.01817   0.01813   1.94236
    A3        1.92621   0.00148   0.00000   0.00807   0.00805   1.93425
    A4        1.88951  -0.00133   0.00000  -0.00630  -0.00636   1.88315
    A5        1.88755  -0.00045   0.00000  -0.00092  -0.00094   1.88660
    A6        1.89246  -0.00309   0.00000  -0.02232  -0.02234   1.87012
    A7        2.25535  -0.00034   0.00000  -0.00020  -0.00015   2.25520
    A8        2.10420   0.00407   0.00000   0.01708   0.01713   2.12132
    A9        1.92363  -0.00373   0.00000  -0.01687  -0.01697   1.90666
   A10        1.83499   0.00604   0.00000   0.02536   0.02542   1.86041
   A11        2.30448  -0.00180   0.00000  -0.00531  -0.00535   2.29913
   A12        2.14372  -0.00423   0.00000  -0.02004  -0.02008   2.12364
   A13        1.88019  -0.00725   0.00000  -0.02767  -0.02780   1.85239
   A14        2.19997   0.00398   0.00000   0.01591   0.01554   2.21551
   A15        2.20237   0.00331   0.00000   0.01327   0.01290   2.21528
   A16        1.94280   0.00316   0.00000   0.01435   0.01441   1.95720
   A17        2.15021  -0.00480   0.00000  -0.02667  -0.02669   2.12352
   A18        2.19016   0.00163   0.00000   0.01231   0.01228   2.20244
   A19        1.84308   0.00179   0.00000   0.00513   0.00498   1.84806
   A20        1.98146  -0.00298   0.00000  -0.01361  -0.01420   1.96726
   A21        1.88797   0.00031   0.00000  -0.01683  -0.01761   1.87036
   A22        1.86027   0.00396   0.00000   0.04892   0.04888   1.90916
   A23        1.95117  -0.00078   0.00000  -0.02662  -0.02722   1.92395
   A24        1.91082   0.00012   0.00000   0.01164   0.01151   1.92233
   A25        1.86654  -0.00027   0.00000   0.00069   0.00094   1.86748
   A26        1.99059  -0.00440   0.00000  -0.02302  -0.02310   1.96749
   A27        1.88899   0.00176   0.00000   0.01111   0.01119   1.90018
   A28        1.91473   0.00016   0.00000  -0.00942  -0.00952   1.90521
   A29        1.90488   0.00109   0.00000   0.00753   0.00758   1.91246
   A30        1.89707   0.00186   0.00000   0.00524   0.00495   1.90203
   A31        1.86340  -0.00023   0.00000   0.01081   0.01078   1.87418
   A32        1.94258  -0.00068   0.00000  -0.00884  -0.00897   1.93361
   A33        1.92226  -0.00122   0.00000  -0.00866  -0.00860   1.91365
   A34        1.94883  -0.00098   0.00000  -0.01409  -0.01423   1.93460
   A35        1.86997   0.00116   0.00000   0.01146   0.01142   1.88140
   A36        1.92275   0.00004   0.00000  -0.00585  -0.00609   1.91666
   A37        1.85376   0.00187   0.00000   0.02868   0.02868   1.88244
   A38        2.20162  -0.00537   0.00000  -0.02073  -0.02083   2.18078
   A39        1.96975  -0.00091   0.00000  -0.00320  -0.00330   1.96644
   A40        2.11066   0.00630   0.00000   0.02512   0.02502   2.13568
   A41        1.82413   0.00477   0.00000   0.02888   0.02888   1.85301
    D1        0.10610  -0.00006   0.00000  -0.00326  -0.00321   0.10289
    D2       -3.03231  -0.00013   0.00000  -0.00849  -0.00851  -3.04082
    D3       -1.99096  -0.00050   0.00000  -0.00872  -0.00870  -1.99966
    D4        1.15382  -0.00057   0.00000  -0.01396  -0.01400   1.13981
    D5        2.20201   0.00038   0.00000   0.00226   0.00229   2.20430
    D6       -0.93640   0.00032   0.00000  -0.00298  -0.00301  -0.93941
    D7       -3.14100  -0.00012   0.00000  -0.00383  -0.00381   3.13838
    D8       -0.00241  -0.00004   0.00000  -0.00183  -0.00181  -0.00423
    D9       -0.00233  -0.00005   0.00000   0.00103   0.00102  -0.00131
   D10        3.13626   0.00003   0.00000   0.00302   0.00302   3.13928
   D11        3.13358   0.00043   0.00000   0.01638   0.01631  -3.13330
   D12       -0.00538   0.00037   0.00000   0.01204   0.01194   0.00656
   D13        0.00894  -0.00030   0.00000  -0.01342  -0.01323  -0.00429
   D14        3.11355   0.00072   0.00000   0.02943   0.02922  -3.14041
   D15       -3.13000  -0.00037   0.00000  -0.01521  -0.01500   3.13819
   D16       -0.02538   0.00064   0.00000   0.02764   0.02745   0.00206
   D17       -0.01308   0.00058   0.00000   0.02222   0.02194   0.00887
   D18        3.13471   0.00061   0.00000   0.02263   0.02231  -3.12617
   D19       -3.11763  -0.00045   0.00000  -0.02077  -0.02057  -3.13819
   D20        0.03016  -0.00042   0.00000  -0.02037  -0.02020   0.00996
   D21        1.42609   0.00097   0.00000   0.01736   0.01711   1.44319
   D22       -2.68086  -0.00189   0.00000  -0.03942  -0.03947  -2.72033
   D23       -0.67901  -0.00008   0.00000  -0.02230  -0.02265  -0.70166
   D24       -1.75915   0.00195   0.00000   0.06714   0.06732  -1.69183
   D25        0.41709  -0.00091   0.00000   0.01036   0.01074   0.42783
   D26        2.41894   0.00090   0.00000   0.02747   0.02756   2.44650
   D27        0.01125  -0.00051   0.00000  -0.02065  -0.02083  -0.00957
   D28       -3.13670  -0.00057   0.00000  -0.02123  -0.02138   3.12511
   D29        1.21385  -0.00256   0.00000  -0.11307  -0.11280   1.10105
   D30       -2.94574  -0.00280   0.00000  -0.11060  -0.11042  -3.05616
   D31       -0.91872  -0.00201   0.00000  -0.09659  -0.09650  -1.01522
   D32       -0.92792  -0.00013   0.00000  -0.05986  -0.05998  -0.98790
   D33        1.19568  -0.00037   0.00000  -0.05739  -0.05760   1.13808
   D34       -3.06049   0.00043   0.00000  -0.04338  -0.04367  -3.10416
   D35       -2.99299   0.00062   0.00000  -0.05179  -0.05167  -3.04466
   D36       -0.86940   0.00038   0.00000  -0.04931  -0.04929  -0.91869
   D37        1.15762   0.00117   0.00000  -0.03531  -0.03536   1.12226
   D38        1.16607  -0.00023   0.00000  -0.02993  -0.02989   1.13618
   D39       -3.04576  -0.00000   0.00000  -0.02683  -0.02680  -3.07256
   D40       -0.99065   0.00093   0.00000  -0.00551  -0.00557  -0.99623
   D41       -0.94873  -0.00032   0.00000  -0.03418  -0.03411  -0.98284
   D42        1.12263  -0.00009   0.00000  -0.03107  -0.03102   1.09161
   D43       -3.10545   0.00084   0.00000  -0.00976  -0.00979  -3.11524
   D44       -2.97488  -0.00167   0.00000  -0.05406  -0.05405  -3.02893
   D45       -0.90352  -0.00144   0.00000  -0.05096  -0.05097  -0.95449
   D46        1.15159  -0.00051   0.00000  -0.02964  -0.02973   1.12185
   D47        1.16338   0.00038   0.00000   0.01471   0.01457   1.17796
   D48       -1.92644  -0.00014   0.00000  -0.01247  -0.01242  -1.93886
   D49       -0.93906   0.00154   0.00000   0.02323   0.02318  -0.91588
   D50        2.25430   0.00101   0.00000  -0.00395  -0.00381   2.25049
   D51       -2.94830  -0.00134   0.00000  -0.01398  -0.01407  -2.96238
   D52        0.24505  -0.00186   0.00000  -0.04116  -0.04107   0.20399
   D53       -3.12692  -0.00101   0.00000  -0.02453  -0.02424   3.13202
   D54        0.06340  -0.00113   0.00000  -0.04865  -0.04894   0.01447
         Item               Value     Threshold  Converged?
 Maximum Force            0.014454     0.000450     NO 
 RMS     Force            0.003177     0.000300     NO 
 Maximum Displacement     0.484941     0.001800     NO 
 RMS     Displacement     0.117685     0.001200     NO 
 Predicted change in Energy=-2.737605D-03
 GradGradGradGradGradGradGradGradGradGradGradGradGradGradGradGradGradGrad

                          Input orientation:                          
 ---------------------------------------------------------------------
 Center     Atomic      Atomic             Coordinates (Angstroms)
 Number     Number       Type             X           Y           Z
 ---------------------------------------------------------------------
      1          6           0        0.988143    0.101672   -0.139054
      2          6           0        0.739910    0.087302   -1.615486
      3          6           0       -0.006502   -0.798050   -2.366115
      4          7           0        0.077653   -0.372072   -3.677540
      5          6           0        0.861160    0.747975   -3.663583
      6          7           0        1.280304    1.046771   -2.448031
      7          6           0       -0.548286   -0.987667   -4.839707
      8          6           0       -2.008746   -0.563742   -5.018710
      9          6           0       -2.161729    0.940808   -5.279516
     10          6           0       -1.531629    1.322990   -6.597152
     11          8           0       -1.939513    0.980845   -7.688392
     12          8           0       -0.418319    2.081199   -6.443510
     13          1           0        0.568413   -0.786281    0.345603
     14          1           0        0.540728    0.985644    0.331377
     15          1           0        2.062187    0.130527    0.075048
     16          1           0       -0.575626   -1.672858   -2.089586
     17          1           0        1.080889    1.298698   -4.568415
     18          1           0        0.040101   -0.697108   -5.715166
     19          1           0       -0.479566   -2.077781   -4.755052
     20          1           0       -2.441809   -1.127217   -5.853652
     21          1           0       -2.573041   -0.828353   -4.117599
     22          1           0       -3.225252    1.199769   -5.329276
     23          1           0       -1.712068    1.523789   -4.470496
     24          1           0       -0.087043    2.264301   -7.345010
 ---------------------------------------------------------------------
                    Distance matrix (angstroms):
                    1          2          3          4          5
     1  C    0.000000
     2  C    1.497223   0.000000
     3  C    2.599735   1.380009   0.000000
     4  N    3.684333   2.213974   1.381439   0.000000
     5  C    3.585546   2.155433   2.196919   1.366962   0.000000
     6  N    2.511960   1.380484   2.250765   2.229615   1.320049
     7  C    5.063932   3.634640   2.539319   1.456498   2.526313
     8  C    5.764995   4.422771   3.331687   2.487676   3.434142
     9  C    6.086887   4.751116   4.019519   3.050379   3.433116
    10  C    7.039027   5.612826   4.972575   3.739941   3.829088
    11  O    8.144730   6.697606   5.935287   4.688953   4.908879
    12  O    6.755948   5.350414   5.008474   3.730297   3.338046
    13  H    1.095229   2.153701   2.772018   4.074077   4.302699
    14  H    1.096764   2.153361   3.279861   4.257846   4.014831
    15  H    1.095556   2.146669   3.331817   4.274681   3.975056
    16  H    3.065764   2.248015   1.079657   2.154162   3.225252
    17  H    4.589195   3.209912   3.229380   2.142805   1.081803
    18  H    5.712255   4.232306   3.350896   2.063729   2.640340
    19  H    5.311461   4.003946   2.751094   2.093076   3.312665
    20  H    6.777269   5.436952   4.266378   3.413707   4.384330
    21  H    5.419945   4.251428   3.107368   2.725440   3.805875
    22  H    6.774727   5.545478   4.809569   4.013489   4.435923
    23  H    5.298580   4.028247   3.567676   2.725100   2.806154
    24  H    7.599921   6.184709   5.845842   4.519726   4.092828
                    6          7          8          9         10
     6  N    0.000000
     7  C    3.633565   0.000000
     8  C    4.474371   1.531240   0.000000
     9  C    4.458266   2.552577   1.534632   0.000000
    10  C    5.019809   3.065080   2.505769   1.509720   0.000000
    11  O    6.150850   3.731697   3.085084   2.419435   1.214182
    12  O    4.463095   3.465114   3.399297   2.386388   1.355708
    13  H    3.416322   5.308014   5.955429   6.486793   7.553877
    14  H    2.876772   5.640923   6.125671   6.227954   7.239681
    15  H    2.795848   5.676243   6.557505   6.867996   7.671749
    16  H    3.312000   2.834325   3.444378   4.418442   5.496108
    17  H    2.144589   2.820510   3.635559   3.338910   3.307812
    18  H    3.905559   1.094099   2.168089   2.778600   2.707219
    19  H    4.264072   1.095553   2.168000   3.495228   4.008169
    20  H    5.493506   2.152438   1.096438   2.164441   2.717487
    21  H    4.599111   2.155564   1.095651   2.156192   3.443981
    22  H    5.350236   3.491518   2.164788   1.095727   2.119210
    23  H    3.643104   2.792511   2.178610   1.093881   2.143722
    24  H    5.228042   4.130930   4.135509   3.212821   1.879411
                   11         12         13         14         15
    11  O    0.000000
    12  O    2.252674   0.000000
    13  H    8.599855   7.435599   0.000000
    14  H    8.394541   6.929582   1.772198   0.000000
    15  H    8.775400   7.242211   1.773442   1.764020   0.000000
    16  H    6.344207   5.751029   2.832842   3.764963   3.859520
    17  H    4.354092   2.525058   5.362587   4.939406   4.887669
    18  H    3.260065   2.908543   6.084406   6.296266   6.188731
    19  H    4.482313   4.489071   5.364971   6.024727   5.887868
    20  H    2.839454   3.838799   6.899887   7.184309   7.550985
    21  H    4.052792   4.303276   5.458084   5.725341   6.323217
    22  H    2.695641   3.145998   7.109187   6.802312   7.635902
    23  H    3.271296   2.424309   5.807911   5.331292   6.070268
    24  H    2.279652   0.977739   8.299470   7.807431   8.014327
                   16         17         18         19         20
    16  H    0.000000
    17  H    4.209368   0.000000
    18  H    3.804739   2.526167   0.000000
    19  H    2.697758   3.724307   1.760151   0.000000
    20  H    4.236573   4.466128   2.522707   2.441494   0.000000
    21  H    2.969123   4.251916   3.065609   2.519932   1.766471
    22  H    5.076228   4.373962   3.795996   4.314031   2.510700
    23  H    4.144730   2.803723   3.090580   3.817243   3.077901
    24  H    6.584787   3.163216   3.382677   5.071058   4.389928
                   21         22         23         24
    21  H    0.000000
    22  H    2.450882   0.000000
    23  H    2.529503   1.769807   0.000000
    24  H    5.114771   3.878758   3.384065   0.000000
 Stoichiometry    C8H12N2O2
 Framework group  C1[X(C8H12N2O2)]
 Deg. of freedom    66
 Full point group                 C1      NOp   1
 Largest Abelian subgroup         C1      NOp   1
 Largest concise Abelian subgroup C1      NOp   1
                         Standard orientation:                         
 ---------------------------------------------------------------------
 Center     Atomic      Atomic             Coordinates (Angstroms)
 Number     Number       Type             X           Y           Z
 ---------------------------------------------------------------------
      1          6           0        4.253953    0.134423    0.565430
      2          6           0        2.829853    0.142257    0.103312
      3          6           0        1.998140   -0.922333   -0.178339
      4          7           0        0.784858   -0.384432   -0.561726
      5          6           0        0.931633    0.972772   -0.490741
      6          7           0        2.144230    1.322443   -0.103615
      7          6           0       -0.411744   -1.115787   -0.954983
      8          6           0       -1.239596   -1.584130    0.245022
      9          6           0       -1.785945   -0.418060    1.079814
     10          6           0       -2.774426    0.396253    0.280406
     11          8           0       -3.863659    0.004148   -0.085738
     12          8           0       -2.307445    1.631747   -0.025256
     13          1           0        4.664797   -0.880755    0.577500
     14          1           0        4.346561    0.547546    1.577184
     15          1           0        4.880227    0.747150   -0.092284
     16          1           0        2.158963   -1.989308   -0.141459
     17          1           0        0.117949    1.645186   -0.727540
     18          1           0       -1.005223   -0.448109   -1.586680
     19          1           0       -0.126718   -1.973300   -1.574393
     20          1           0       -2.072358   -2.198753   -0.116809
     21          1           0       -0.617557   -2.219743    0.884956
     22          1           0       -2.308209   -0.808406    1.960431
     23          1           0       -0.972902    0.224737    1.429596
     24          1           0       -3.011526    2.068137   -0.544684
 ---------------------------------------------------------------------
 Rotational constants (GHZ):           2.2832128           0.4748448           0.4291041
 Standard basis: 6-31G(d) (6D, 7F)
 There are   204 symmetry adapted cartesian basis functions of A   symmetry.
 There are   204 symmetry adapted basis functions of A   symmetry.
   204 basis functions,   384 primitive gaussians,   204 cartesian basis functions
    45 alpha electrons       45 beta electrons
       nuclear repulsion energy       703.7953418597 Hartrees.
 NAtoms=   24 NActive=   24 NUniq=   24 SFac= 1.00D+00 NAtFMM=   60 NAOKFM=F Big=F
 Integral buffers will be    131072 words long.
 Raffenetti 2 integral format.
 Two-electron integral symmetry is turned on.
 Nuclear repulsion after empirical dispersion term =      703.7546574860 Hartrees.
 One-electron integrals computed using PRISM.
 NBasis=   204 RedAO= T EigKep=  1.40D-03  NBF=   204
 NBsUse=   204 1.00D-06 EigRej= -1.00D+00 NBFU=   204
 Initial guess from the checkpoint file:  "JID_2261.chk"
 B after Tr=     0.000000    0.000000    0.000000
         Rot=    0.999809    0.018817   -0.002704    0.004443 Ang=   2.24 deg.
 ExpMin= 1.61D-01 ExpMax= 5.48D+03 ExpMxC= 8.25D+02 IAcc=2 IRadAn=         4 AccDes= 0.00D+00
 Harris functional with IExCor=  402 and IRadAn=       4 diagonalized for initial guess.
 HarFok:  IExCor=  402 AccDes= 0.00D+00 IRadAn=         4 IDoV= 1 UseB2=F ITyADJ=14
 ICtDFT=  3500011 ScaDFX=  1.000000  1.000000  1.000000  1.000000
 FoFCou: FMM=F IPFlag=           0 FMFlag=      100000 FMFlg1=           0
         NFxFlg=           0 DoJE=T BraDBF=F KetDBF=T FulRan=T
         wScrn=  0.000000 ICntrl=       500 IOpCl=  0 I1Cent=   200000004 NGrid=           0
         NMat0=    1 NMatS0=      1 NMatT0=    0 NMatD0=    1 NMtDS0=    0 NMtDT0=    0
 Petite list used in FoFCou.
 Keep R1 ints in memory in canonical form, NReq=222933444.
 Requested convergence on RMS density matrix=1.00D-08 within  32 cycles.
 Requested convergence on MAX density matrix=1.00D-06.
 Requested convergence on             energy=1.00D-06.
 No special actions if energy rises.
 Integral accuracy reduced to 1.0D-05 until final iterations.
 Initial convergence to 1.0D-05 achieved.  Increase integral accuracy.
 SCF Done:  E(RB3LYP) =  -572.082856868     A.U. after   12 cycles
            NFock= 12  Conv=0.54D-08     -V/T= 2.0094
 QCSCF skips out because SCF is already converged.
 Calling FoFJK, ICntrl=      2127 FMM=F ISym2X=0 I1Cent= 0 IOpClX= 0 NMat=1 NMatS=1 NMatT=0.
 ***** Axes restored to original set *****
 -------------------------------------------------------------------
 Center     Atomic                   Forces (Hartrees/Bohr)
 Number     Number              X              Y              Z
 -------------------------------------------------------------------
      1        6          -0.000478018   -0.001039888   -0.000418204
      2        6          -0.002518967   -0.002576342   -0.003955163
      3        6          -0.000359949   -0.000950079    0.006541880
      4        7           0.001491509   -0.002099369   -0.000800663
      5        6           0.004131281    0.002227644    0.002519590
      6        7          -0.000942595    0.002291299   -0.003217689
      7        6           0.000373154    0.001129806   -0.000067166
      8        6          -0.001483330   -0.001571762    0.000507279
      9        6          -0.000639779    0.003497011    0.003015513
     10        6          -0.005170356   -0.001164388   -0.006155528
     11        8           0.002662166    0.000810150    0.004041556
     12        8           0.001546390    0.001044207   -0.001451204
     13        1          -0.000199157    0.000040881   -0.000633808
     14        1           0.000143666    0.000245572   -0.000358787
     15        1           0.000175844    0.000198395   -0.000191283
     16        1          -0.000173974   -0.000798340   -0.000341411
     17        1           0.000010341   -0.000428475    0.000500572
     18        1           0.000328487   -0.000592463   -0.000560245
     19        1           0.000687210    0.001034545    0.001672130
     20        1           0.000290119    0.000795357   -0.000198149
     21        1          -0.000081073    0.000043409    0.000019169
     22        1           0.000645450   -0.000739421   -0.001214956
     23        1          -0.000103069   -0.001192244   -0.000058668
     24        1          -0.000335353   -0.000205503    0.000805235
 -------------------------------------------------------------------
 Cartesian Forces:  Max     0.006541880 RMS     0.001908821

 GradGradGradGradGradGradGradGradGradGradGradGradGradGradGradGradGradGrad
 Berny optimization.
 Using GEDIIS/GDIIS optimizer.
 FormGI is forming the generalized inverse of G from B-inverse, IUseBI=4.
 Internal  Forces:  Max     0.004754534 RMS     0.001322231
 Search for a local minimum.
 Step number   2 out of a maximum of  129
 All quantities printed in internal units (Hartrees-Bohrs-Radians)
 Mixed Optimization -- RFO/linear search
 Update second derivatives using D2CorX and points    1    2
 DE= -2.07D-03 DEPred=-2.74D-03 R= 7.57D-01
 TightC=F SS=  1.41D+00  RLast= 3.08D-01 DXNew= 5.0454D-01 9.2541D-01
 Trust test= 7.57D-01 RLast= 3.08D-01 DXMaxT set to 5.05D-01
 ITU=  1  0
 Use linear search instead of GDIIS.
     Eigenvalues ---    0.00380   0.00446   0.00732   0.01044   0.01065
     Eigenvalues ---    0.01153   0.01579   0.01698   0.02197   0.02250
     Eigenvalues ---    0.02322   0.02427   0.02442   0.03578   0.04279
     Eigenvalues ---    0.04750   0.05061   0.05344   0.05414   0.07315
     Eigenvalues ---    0.07398   0.08336   0.09052   0.09694   0.12116
     Eigenvalues ---    0.12670   0.12971   0.15522   0.16000   0.16000
     Eigenvalues ---    0.16000   0.16000   0.16072   0.21843   0.21946
     Eigenvalues ---    0.22206   0.23462   0.24385   0.24661   0.24999
     Eigenvalues ---    0.25000   0.26933   0.29284   0.29692   0.31735
     Eigenvalues ---    0.33925   0.34006   0.34033   0.34089   0.34196
     Eigenvalues ---    0.34225   0.34303   0.34314   0.34328   0.35178
     Eigenvalues ---    0.35720   0.35958   0.38580   0.44277   0.46504
     Eigenvalues ---    0.48281   0.51123   0.51182   0.55499   0.62462
     Eigenvalues ---    0.94775
 RFO step:  Lambda=-8.92110994D-04 EMin= 3.80054465D-03
 Quartic linear search produced a step of -0.16333.
 Iteration  1 RMS(Cart)=  0.07198084 RMS(Int)=  0.00130720
 Iteration  2 RMS(Cart)=  0.00227129 RMS(Int)=  0.00004239
 Iteration  3 RMS(Cart)=  0.00000109 RMS(Int)=  0.00004238
 Iteration  4 RMS(Cart)=  0.00000000 RMS(Int)=  0.00004238
 Variable       Old X    -DE/DX   Delta X   Delta X   Delta X     New X
                                 (Linear)    (Quad)   (Total)
    R1        2.82934  -0.00164  -0.00566   0.00880   0.00314   2.83249
    R2        2.06968  -0.00024  -0.00024  -0.00004  -0.00028   2.06940
    R3        2.07258  -0.00001  -0.00078   0.00172   0.00094   2.07353
    R4        2.07030   0.00014  -0.00038   0.00119   0.00081   2.07111
    R5        2.60784  -0.00420  -0.00031  -0.00650  -0.00681   2.60102
    R6        2.60874   0.00216  -0.00157   0.00677   0.00520   2.61394
    R7        2.61054   0.00160  -0.00457   0.01319   0.00862   2.61916
    R8        2.04026   0.00065   0.00042   0.00057   0.00099   2.04125
    R9        2.58318   0.00239  -0.00086   0.00601   0.00515   2.58834
   R10        2.75238  -0.00095  -0.00267   0.00394   0.00128   2.75366
   R11        2.49453  -0.00385  -0.00193  -0.00087  -0.00279   2.49174
   R12        2.04431  -0.00063   0.00023  -0.00201  -0.00178   2.04253
   R13        2.89363   0.00299  -0.00002   0.00856   0.00854   2.90217
   R14        2.06755   0.00047   0.00040   0.00024   0.00064   2.06819
   R15        2.07030  -0.00086   0.00038  -0.00296  -0.00258   2.06771
   R16        2.90003   0.00232  -0.00247   0.01209   0.00962   2.90965
   R17        2.07197  -0.00037   0.00023  -0.00142  -0.00120   2.07077
   R18        2.07048   0.00005   0.00038  -0.00074  -0.00036   2.07012
   R19        2.85296   0.00199  -0.00229   0.01033   0.00805   2.86100
   R20        2.07062  -0.00075   0.00015  -0.00216  -0.00201   2.06861
   R21        2.06713  -0.00072   0.00031  -0.00247  -0.00215   2.06498
   R22        2.29447  -0.00475   0.00146  -0.00742  -0.00596   2.28851
   R23        2.56192   0.00139  -0.00346   0.00984   0.00638   2.56830
   R24        1.84766  -0.00089   0.00104  -0.00380  -0.00276   1.84490
    A1        1.94449  -0.00069  -0.00032  -0.00253  -0.00283   1.94165
    A2        1.94236  -0.00035  -0.00296   0.00463   0.00168   1.94404
    A3        1.93425  -0.00011  -0.00131   0.00238   0.00107   1.93532
    A4        1.88315   0.00056   0.00104   0.00060   0.00165   1.88481
    A5        1.88660   0.00053   0.00015   0.00295   0.00311   1.88972
    A6        1.87012   0.00012   0.00365  -0.00833  -0.00468   1.86545
    A7        2.25520  -0.00241   0.00003  -0.00789  -0.00786   2.24733
    A8        2.12132  -0.00065  -0.00280   0.00440   0.00160   2.12292
    A9        1.90666   0.00306   0.00277   0.00349   0.00625   1.91292
   A10        1.86041  -0.00266  -0.00415   0.00036  -0.00380   1.85661
   A11        2.29913   0.00182   0.00087   0.00512   0.00600   2.30513
   A12        2.12364   0.00084   0.00328  -0.00548  -0.00220   2.12144
   A13        1.85239   0.00118   0.00454  -0.00495  -0.00044   1.85195
   A14        2.21551  -0.00268  -0.00254  -0.00407  -0.00662   2.20889
   A15        2.21528   0.00149  -0.00211   0.00888   0.00676   2.22203
   A16        1.95720  -0.00067  -0.00235   0.00337   0.00094   1.95815
   A17        2.12352   0.00033   0.00436  -0.00907  -0.00478   2.11874
   A18        2.20244   0.00034  -0.00201   0.00556   0.00348   2.20593
   A19        1.84806  -0.00090  -0.00081  -0.00213  -0.00294   1.84513
   A20        1.96726   0.00190   0.00232   0.00203   0.00438   1.97163
   A21        1.87036   0.00038   0.00288   0.00723   0.01017   1.88053
   A22        1.90916  -0.00256  -0.00798  -0.00820  -0.01618   1.89297
   A23        1.92395   0.00002   0.00445   0.00115   0.00562   1.92957
   A24        1.92233  -0.00006  -0.00188  -0.00247  -0.00435   1.91797
   A25        1.86748   0.00022  -0.00015   0.00036   0.00022   1.86770
   A26        1.96749   0.00474   0.00377   0.01054   0.01433   1.98182
   A27        1.90018  -0.00087  -0.00183   0.00209   0.00029   1.90047
   A28        1.90521  -0.00172   0.00155  -0.00832  -0.00677   1.89844
   A29        1.91246  -0.00226  -0.00124  -0.00980  -0.01105   1.90141
   A30        1.90203  -0.00094  -0.00081   0.00156   0.00081   1.90283
   A31        1.87418   0.00089  -0.00176   0.00364   0.00187   1.87605
   A32        1.93361   0.00012   0.00146  -0.00421  -0.00282   1.93078
   A33        1.91365  -0.00047   0.00141  -0.01412  -0.01285   1.90080
   A34        1.93460  -0.00031   0.00232  -0.00087   0.00146   1.93606
   A35        1.88140  -0.00113  -0.00187  -0.01203  -0.01403   1.86737
   A36        1.91666   0.00117   0.00100   0.01346   0.01451   1.93117
   A37        1.88244   0.00060  -0.00468   0.01796   0.01334   1.89578
   A38        2.18078   0.00023   0.00340  -0.00715  -0.00381   2.17697
   A39        1.96644   0.00096   0.00054   0.00175   0.00223   1.96867
   A40        2.13568  -0.00121  -0.00409   0.00497   0.00082   2.13650
   A41        1.85301  -0.00010  -0.00472   0.01027   0.00556   1.85856
    D1        0.10289  -0.00009   0.00052  -0.00627  -0.00575   0.09713
    D2       -3.04082  -0.00013   0.00139  -0.01021  -0.00881  -3.04963
    D3       -1.99966  -0.00010   0.00142  -0.00848  -0.00707  -2.00673
    D4        1.13981  -0.00014   0.00229  -0.01242  -0.01012   1.12969
    D5        2.20430   0.00005  -0.00037  -0.00261  -0.00299   2.20131
    D6       -0.93941   0.00001   0.00049  -0.00655  -0.00604  -0.94545
    D7        3.13838  -0.00001   0.00062  -0.00175  -0.00112   3.13725
    D8       -0.00423   0.00005   0.00030   0.00081   0.00108  -0.00315
    D9       -0.00131   0.00002  -0.00017   0.00180   0.00164   0.00033
   D10        3.13928   0.00008  -0.00049   0.00436   0.00384  -3.14007
   D11       -3.13330  -0.00037  -0.00266  -0.00605  -0.00870   3.14119
   D12        0.00656  -0.00040  -0.00195  -0.00929  -0.01124  -0.00468
   D13       -0.00429   0.00037   0.00216   0.00617   0.00828   0.00400
   D14       -3.14041   0.00052  -0.00477   0.03313   0.02826  -3.11215
   D15        3.13819   0.00031   0.00245   0.00392   0.00636  -3.13863
   D16        0.00206   0.00046  -0.00448   0.03088   0.02634   0.02841
   D17        0.00887  -0.00065  -0.00358  -0.01265  -0.01620  -0.00734
   D18       -3.12617  -0.00005  -0.00364   0.00840   0.00478  -3.12139
   D19       -3.13819  -0.00082   0.00336  -0.03966  -0.03644   3.10856
   D20        0.00996  -0.00021   0.00330  -0.01861  -0.01546  -0.00550
   D21        1.44319  -0.00108  -0.00279  -0.03726  -0.04002   1.40317
   D22       -2.72033   0.00039   0.00645  -0.02966  -0.02316  -2.74349
   D23       -0.70166  -0.00045   0.00370  -0.02953  -0.02580  -0.72746
   D24       -1.69183  -0.00089  -0.01100  -0.00481  -0.01585  -1.70768
   D25        0.42783   0.00058  -0.00175   0.00279   0.00101   0.42884
   D26        2.44650  -0.00026  -0.00450   0.00292  -0.00163   2.44487
   D27       -0.00957   0.00068   0.00340   0.01361   0.01702   0.00745
   D28        3.12511   0.00004   0.00349  -0.00865  -0.00527   3.11984
   D29        1.10105   0.00189   0.01842   0.01340   0.03177   1.13282
   D30       -3.05616   0.00154   0.01804   0.00940   0.02743  -3.02873
   D31       -1.01522   0.00116   0.01576   0.01028   0.02605  -0.98917
   D32       -0.98790   0.00012   0.00980   0.00207   0.01185  -0.97604
   D33        1.13808  -0.00022   0.00941  -0.00192   0.00751   1.14559
   D34       -3.10416  -0.00061   0.00713  -0.00104   0.00613  -3.09803
   D35       -3.04466  -0.00013   0.00844   0.00243   0.01083  -3.03383
   D36       -0.91869  -0.00047   0.00805  -0.00157   0.00649  -0.91220
   D37        1.12226  -0.00086   0.00578  -0.00069   0.00511   1.12737
   D38        1.13618   0.00139   0.00488   0.05001   0.05483   1.19101
   D39       -3.07256  -0.00023   0.00438   0.02366   0.02805  -3.04451
   D40       -0.99623   0.00002   0.00091   0.03639   0.03728  -0.95895
   D41       -0.98284   0.00091   0.00557   0.04720   0.05274  -0.93009
   D42        1.09161  -0.00071   0.00507   0.02085   0.02596   1.11757
   D43       -3.11524  -0.00046   0.00160   0.03357   0.03519  -3.08005
   D44       -3.02893   0.00166   0.00883   0.04749   0.05629  -2.97264
   D45       -0.95449   0.00005   0.00832   0.02114   0.02951  -0.92498
   D46        1.12185   0.00030   0.00486   0.03386   0.03874   1.16059
   D47        1.17796  -0.00114  -0.00238  -0.05786  -0.06018   1.11778
   D48       -1.93886  -0.00067   0.00203  -0.03884  -0.03680  -1.97567
   D49       -0.91588   0.00006  -0.00379  -0.03064  -0.03446  -0.95033
   D50        2.25049   0.00053   0.00062  -0.01162  -0.01108   2.23941
   D51       -2.96238  -0.00065   0.00230  -0.05259  -0.05024  -3.01262
   D52        0.20399  -0.00017   0.00671  -0.03357  -0.02686   0.17712
   D53        3.13202  -0.00023   0.00396  -0.02509  -0.02121   3.11081
   D54        0.01447   0.00021   0.00799  -0.00644   0.00162   0.01609
         Item               Value     Threshold  Converged?
 Maximum Force            0.004755     0.000450     NO 
[...]
 
   133    C    7  S      Cor( 1S)     0.99960      -9.97756
   134    C    7  S      Val( 2S)     0.49602      -0.13114
   135    C    7  S      Ryd( 4S)     0.00143       1.56889
   136    C    7  S      Ryd( 3S)     0.00108       1.54919
   137    C    7  S      Ryd( 5S)     0.00003      17.67875
   138    C    7  px     Val( 2p)     0.47588       0.02231
   139    C    7  px     Ryd( 4p)     0.00171       1.06087
   140    C    7  px     Ryd( 3p)     0.00026       0.99396
   141    C    7  px     Ryd( 5p)     0.00005       2.32935
   142    C    7  py     Val( 2p)     0.53384       0.00865
   143    C    7  py     Ryd( 3p)     0.00272       1.22649
   144    C    7  py     Ryd( 4p)     0.00042       1.27712
   145    C    7  py     Ryd( 5p)     0.00005       2.53769
   146    C    7  pz     Val( 2p)     0.56741      -0.00196
   147    C    7  pz     Ryd( 3p)     0.00112       1.48495
   148    C    7  pz     Ryd( 5p)     0.00050       2.41858
   149    C    7  pz     Ryd( 4p)     0.00005       2.28147
   150    C    7  dxy    Ryd( 3d)     0.00060       2.36636
   151    C    7  dxz    Ryd( 3d)     0.00050       2.35997
   152    C    7  dyz    Ryd( 3d)     0.00027       1.98875
   153    C    7  dx2y2  Ryd( 3d)     0.00040       2.14139
   154    C    7  dz2    Ryd( 3d)     0.00048       2.29277
 
   155    C    8  S      Cor( 1S)     0.99963      -9.94124
   156    C    8  S      Val( 2S)     0.51320      -0.14886
   157    C    8  S      Ryd( 3S)     0.00110       1.04079
   158    C    8  S      Ryd( 4S)     0.00089       2.22173
   159    C    8  S      Ryd( 5S)     0.00002      17.51823
   160    C    8  px     Val( 2p)     0.57796       0.00945
   161    C    8  px     Ryd( 3p)     0.00185       0.85568
   162    C    8  px     Ryd( 4p)     0.00017       1.46542
   163    C    8  px     Ryd( 5p)     0.00001       3.00597
   164    C    8  py     Val( 2p)     0.54087       0.01331
   165    C    8  py     Ryd( 3p)     0.00091       1.50303
   166    C    8  py     Ryd( 4p)     0.00050       3.15004
   167    C    8  py     Ryd( 5p)     0.00002       3.30269
   168    C    8  pz     Val( 2p)     0.55124       0.01507
   169    C    8  pz     Ryd( 3p)     0.00186       0.89297
   170    C    8  pz     Ryd( 4p)     0.00060       1.67326
   171    C    8  pz     Ryd( 5p)     0.00002       3.04372
   172    C    8  dxy    Ryd( 3d)     0.00042       2.25386
   173    C    8  dxz    Ryd( 3d)     0.00043       2.38042
   174    C    8  dyz    Ryd( 3d)     0.00027       2.16717
   175    C    8  dx2y2  Ryd( 3d)     0.00022       2.20285
   176    C    8  dz2    Ryd( 3d)     0.00035       2.21918
 
   177    C    9  S      Cor( 1S)     0.99957      -9.94793
   178    C    9  S      Val( 2S)     0.52367      -0.15837
   179    C    9  S      Ryd( 3S)     0.00100       1.59286
   180    C    9  S      Ryd( 4S)     0.00118       3.03359
   181    C    9  S      Ryd( 5S)     0.00003      14.33342
   182    C    9  px     Val( 2p)     0.59058      -0.00809
   183    C    9  px     Ryd( 4p)     0.00114       1.22902
   184    C    9  px     Ryd( 3p)     0.00031       1.21844
   185    C    9  px     Ryd( 5p)     0.00003       3.00549
   186    C    9  py     Val( 2p)     0.54321       0.00346
   187    C    9  py     Ryd( 5p)     0.00121       2.82513
   188    C    9  py     Ryd( 3p)     0.00077       1.85632
   189    C    9  py     Ryd( 4p)     0.00004       2.81942
   190    C    9  pz     Val( 2p)     0.57951      -0.01100
   191    C    9  pz     Ryd( 5p)     0.00136       3.54894
   192    C    9  pz     Ryd( 3p)     0.00064       2.32972
   193    C    9  pz     Ryd( 4p)     0.00002       2.92010
   194    C    9  dxy    Ryd( 3d)     0.00056       2.28609
   195    C    9  dxz    Ryd( 3d)     0.00046       2.35285
   196    C    9  dyz    Ryd( 3d)     0.00042       2.18518
   197    C    9  dx2y2  Ryd( 3d)     0.00021       2.14978
   198    C    9  dz2    Ryd( 3d)     0.00028       2.20134
 
   199    C   10  S      Cor( 1S)     0.99972     -10.09792
   200    C   10  S      Val( 2S)     0.39317      -0.07391
   201    C   10  S      Ryd( 3S)     0.00195       1.17459
   202    C   10  S      Ryd( 4S)     0.00130       6.40034
   203    C   10  S      Ryd( 5S)     0.00023      10.17124
   204    C   10  px     Val( 2p)     0.38920      -0.01329
   205    C   10  px     Ryd( 3p)     0.00153       1.06556
   206    C   10  px     Ryd( 4p)     0.00038       1.57973
   207    C   10  px     Ryd( 5p)     0.00007       2.32892
   208    C   10  py     Val( 2p)     0.38073       0.02927
   209    C   10  py     Ryd( 3p)     0.00344       1.20885
   210    C   10  py     Ryd( 4p)     0.00016       1.57208
   211    C   10  py     Ryd( 5p)     0.00014       2.61190
   212    C   10  pz     Val( 2p)     0.40182       0.06184
   213    C   10  pz     Ryd( 3p)     0.00789       1.22858
   214    C   10  pz     Ryd( 4p)     0.00034       1.63981
   215    C   10  pz     Ryd( 5p)     0.00009       2.28835
   216    C   10  dxy    Ryd( 3d)     0.00113       1.97123
   217    C   10  dxz    Ryd( 3d)     0.00187       2.14235
   218    C   10  dyz    Ryd( 3d)     0.00205       2.39034
   219    C   10  dx2y2  Ryd( 3d)     0.00122       1.91066
   220    C   10  dz2    Ryd( 3d)     0.00150       2.42244
 
   221    O   11  S      Cor( 1S)     0.99987     -18.75394
   222    O   11  S      Val( 2S)     0.85279      -0.80968
   223    O   11  S      Ryd( 3S)     0.00106       1.53134
   224    O   11  S      Ryd( 4S)     0.00007       1.88769
   225    O   11  S      Ryd( 5S)     0.00000      49.80126
   226    O   11  px     Val( 2p)     0.78804      -0.17282
   227    O   11  px     Ryd( 3p)     0.00058       0.90215
   228    O   11  px     Ryd( 4p)     0.00017       1.01265
   229    O   11  px     Ryd( 5p)     0.00001       5.11865
   230    O   11  py     Val( 2p)     0.88178      -0.17928
   231    O   11  py     Ryd( 3p)     0.00120       0.91265
   232    O   11  py     Ryd( 4p)     0.00008       0.98171
   233    O   11  py     Ryd( 5p)     0.00001       5.16406
   234    O   11  pz     Val( 2p)     0.78688      -0.21253
   235    O   11  pz     Ryd( 4p)     0.00034       1.08606
   236    O   11  pz     Ryd( 3p)     0.00026       0.94794
   237    O   11  pz     Ryd( 5p)     0.00006       5.41978
   238    O   11  dxy    Ryd( 3d)     0.00013       3.00692
   239    O   11  dxz    Ryd( 3d)     0.00069       3.31276
   240    O   11  dyz    Ryd( 3d)     0.00067       3.37476
   241    O   11  dx2y2  Ryd( 3d)     0.00011       3.00304
   242    O   11  dz2    Ryd( 3d)     0.00084       3.67259
 
   243    O   12  S      Cor( 1S)     0.99988     -18.85762
   244    O   12  S      Val( 2S)     0.84219      -0.84568
   245    O   12  S      Ryd( 3S)     0.00095       1.04229
   246    O   12  S      Ryd( 4S)     0.00030       1.12988
   247    O   12  S      Ryd( 5S)     0.00000      49.68239
   248    O   12  px     Val( 2p)     0.86064      -0.23456
   249    O   12  px     Ryd( 3p)     0.00053       0.56389
   250    O   12  px     Ryd( 4p)     0.00046       1.15214
   251    O   12  px     Ryd( 5p)     0.00000       5.14256
   252    O   12  py     Val( 2p)     0.76442      -0.23615
   253    O   12  py     Ryd( 3p)     0.00044       0.67903
   254    O   12  py     Ryd( 4p)     0.00053       1.09980
   255    O   12  py     Ryd( 5p)     0.00005       5.32168
   256    O   12  pz     Val( 2p)     0.86764      -0.24687
   257    O   12  pz     Ryd( 3p)     0.00093       0.54328
   258    O   12  pz     Ryd( 4p)     0.00030       1.19333
   259    O   12  pz     Ryd( 5p)     0.00004       5.26897
   260    O   12  dxy    Ryd( 3d)     0.00027       3.27804
   261    O   12  dxz    Ryd( 3d)     0.00057       3.28098
   262    O   12  dyz    Ryd( 3d)     0.00060       3.43415
   263    O   12  dx2y2  Ryd( 3d)     0.00023       3.23917
   264    O   12  dz2    Ryd( 3d)     0.00051       3.21997
 
   265    H   13  S      Val( 1S)     0.39687       0.12769
   266    H   13  S      Ryd( 2S)     0.00023       0.39029
   267    H   13  S      Ryd( 3S)     0.00028       0.89637
   268    H   13  S      Ryd( 4S)     0.00005       1.74407
   269    H   13  px     Ryd( 2p)     0.00007       1.97224
   270    H   13  py     Ryd( 2p)     0.00009       2.29233
   271    H   13  pz     Ryd( 2p)     0.00010       2.25630
 
   272    H   14  S      Val( 1S)     0.39551       0.13117
   273    H   14  S      Ryd( 2S)     0.00024       0.39388
   274    H   14  S      Ryd( 3S)     0.00058       0.77552
   275    H   14  S      Ryd( 4S)     0.00011       1.89968
   276    H   14  px     Ryd( 2p)     0.00008       1.86589
   277    H   14  py     Ryd( 2p)     0.00013       2.57498
   278    H   14  pz     Ryd( 2p)     0.00009       2.09542
 
   279    H   15  S      Val( 1S)     0.39724       0.12846
   280    H   15  S      Ryd( 2S)     0.00022       0.35984
   281    H   15  S      Ryd( 3S)     0.00060       0.75437
   282    H   15  S      Ryd( 4S)     0.00011       1.95902
   283    H   15  px     Ryd( 2p)     0.00011       2.35131
   284    H   15  py     Ryd( 2p)     0.00007       1.91738
   285    H   15  pz     Ryd( 2p)     0.00012       2.26101
 
   286    H   16  S      Val( 1S)     0.38996       0.12868
   287    H   16  S      Ryd( 2S)     0.00144       0.42032
   288    H   16  S      Ryd( 4S)     0.00026       1.47560
   289    H   16  S      Ryd( 3S)     0.00003       1.11961
   290    H   16  px     Ryd( 2p)     0.00008       2.02381
   291    H   16  py     Ryd( 2p)     0.00018       2.55132
   292    H   16  pz     Ryd( 2p)     0.00015       2.16040
 
   293    H   17  S      Val( 1S)     0.40194       0.12026
   294    H   17  S      Ryd( 2S)     0.00056       0.47551
   295    H   17  S      Ryd( 4S)     0.00033       1.43994
   296    H   17  S      Ryd( 3S)     0.00004       1.38488
   297    H   17  px     Ryd( 2p)     0.00021       2.36736
   298    H   17  py     Ryd( 2p)     0.00007       2.12080
   299    H   17  pz     Ryd( 2p)     0.00019       2.26501
 
   300    H   18  S      Val( 1S)     0.38820       0.13704
   301    H   18  S      Ryd( 2S)     0.00082       0.51834
   302    H   18  S      Ryd( 4S)     0.00034       2.00735
   303    H   18  S      Ryd( 3S)     0.00001       0.89497
   304    H   18  px     Ryd( 2p)     0.00012       2.20561
   305    H   18  py     Ryd( 2p)     0.00007       1.99101
   306    H   18  pz     Ryd( 2p)     0.00011       2.53156
 
   307    H   19  S      Val( 1S)     0.39596       0.11996
   308    H   19  S      Ryd( 2S)     0.00095       0.37578
   309    H   19  S      Ryd( 4S)     0.00040       1.53578
   310    H   19  S      Ryd( 3S)     0.00002       1.33401
   311    H   19  px     Ryd( 2p)     0.00008       2.01552
   312    H   19  py     Ryd( 2p)     0.00014       2.69640
   313    H   19  pz     Ryd( 2p)     0.00007       2.00007
 
   314    H   20  S      Val( 1S)     0.39221       0.13249
   315    H   20  S      Ryd( 2S)     0.00119       0.37592
   316    H   20  S      Ryd( 4S)     0.00033       1.83089
   317    H   20  S      Ryd( 3S)     0.00002       1.09946
   318    H   20  px     Ryd( 2p)     0.00013       2.57217
   319    H   20  py     Ryd( 2p)     0.00011       2.22963
   320    H   20  pz     Ryd( 2p)     0.00007       1.93277
 
   321    H   21  S      Val( 1S)     0.39152       0.13184
   322    H   21  S      Ryd( 2S)     0.00276       0.40910
   323    H   21  S      Ryd( 4S)     0.00037       1.78019
   324    H   21  S      Ryd( 3S)     0.00002       1.15360
   325    H   21  px     Ryd( 2p)     0.00008       2.14233
   326    H   21  py     Ryd( 2p)     0.00010       2.12958
   327    H   21  pz     Ryd( 2p)     0.00011       2.44804
 
   328    H   22  S      Val( 1S)     0.37669       0.12878
   329    H   22  S      Ryd( 2S)     0.00128       0.41082
   330    H   22  S      Ryd( 4S)     0.00033       1.53973
   331    H   22  S      Ryd( 3S)     0.00003       1.16496
   332    H   22  px     Ryd( 2p)     0.00008       2.16404
   333    H   22  py     Ryd( 2p)     0.00006       1.93080
   334    H   22  pz     Ryd( 2p)     0.00013       2.58838
 
   335    H   23  S      Val( 1S)     0.37885       0.13391
   336    H   23  S      Ryd( 2S)     0.00118       0.48722
   337    H   23  S      Ryd( 4S)     0.00029       2.12801
   338    H   23  S      Ryd( 3S)     0.00002       0.79325
   339    H   23  px     Ryd( 2p)     0.00011       2.57673
   340    H   23  py     Ryd( 2p)     0.00008       2.15030
   341    H   23  pz     Ryd( 2p)     0.00009       2.02698
 
   342    H   24  S      Val( 1S)     0.24566       0.13901
   343    H   24  S      Ryd( 2S)     0.00945       0.26789
   344    H   24  S      Ryd( 4S)     0.00046       2.24887
   345    H   24  S      Ryd( 3S)     0.00006       0.75619
   346    H   24  px     Ryd( 2p)     0.00060       1.90319
   347    H   24  py     Ryd( 2p)     0.00054       2.01776
   348    H   24  pz     Ryd( 2p)     0.00051       2.23550

 WARNING:  Population inversion found on atom  C    1
           Population inversion found on atom  C    2
           Population inversion found on atom  N    4
           Population inversion found on atom  C    5
           Population inversion found on atom  N    6
           Population inversion found on atom  C    7
           Population inversion found on atom  C    9
           Population inversion found on atom  O   11
           Population inversion found on atom  O   12
           Population inversion found on atom  H   13
           Population inversion found on atom  H   14
           Population inversion found on atom  H   15
           Population inversion found on atom  H   16
           Population inversion found on atom  H   17
           Population inversion found on atom  H   18
           Population inversion found on atom  H   19
           Population inversion found on atom  H   20
           Population inversion found on atom  H   21
           Population inversion found on atom  H   22
           Population inversion found on atom  H   23
           Population inversion found on atom  H   24


 Summary of Natural Population Analysis:                  
                                                          
                                       Natural Population 
                Natural  -----------------------------------------------
    Atom  No    Charge         Core      Valence    Rydberg      Total
 -----------------------------------------------------------------------
      C    1   -0.29430      0.99963     2.28977    0.00489     3.29430
      C    2    0.04766      0.99956     1.93795    0.01483     2.95234
      C    3   -0.03747      0.99947     2.02595    0.01204     3.03747
      N    4   -0.20801      0.99965     2.69741    0.01094     3.70801
      C    5    0.10738      0.99962     1.87732    0.01567     2.89262
      N    6   -0.26390      0.99971     2.75403    0.01017     3.76390
      C    7   -0.08443      0.99960     2.07316    0.01167     3.08443
      C    8   -0.19254      0.99963     2.18327    0.00964     3.19254
      C    9   -0.24620      0.99957     2.23697    0.00966     3.24620
      C   10    0.41009      0.99972     1.56492    0.02528     2.58991
      O   11   -0.31565      0.99987     3.30949    0.00629     4.31565
      O   12   -0.34151      0.99988     3.33490    0.00673     4.34151
      H   13    0.10230      0.00000     0.39687    0.00083     0.39770
      H   14    0.10327      0.00000     0.39551    0.00122     0.39673
      H   15    0.10153      0.00000     0.39724    0.00123     0.39847
      H   16    0.10790      0.00000     0.38996    0.00214     0.39210
      H   17    0.09667      0.00000     0.40194    0.00140     0.40333
      H   18    0.11032      0.00000     0.38820    0.00148     0.38968
      H   19    0.10238      0.00000     0.39596    0.00166     0.39762
      H   20    0.10594      0.00000     0.39221    0.00185     0.39406
      H   21    0.10504      0.00000     0.39152    0.00344     0.39496
      H   22    0.12141      0.00000     0.37669    0.00190     0.37859
      H   23    0.11939      0.00000     0.37885    0.00176     0.38061
      H   24    0.24271      0.00000     0.24566    0.01163     0.25729
 =======================================================================
   * Total *   -0.00000     11.99591    32.83573    0.16836    45.00000

                                 Natural Population      
 --------------------------------------------------------
   Core                      11.99591 ( 99.9659% of  12)
   Valence                   32.83573 ( 99.5022% of  33)
   Natural Minimal Basis     44.83164 ( 99.6259% of  45)
   Natural Rydberg Basis      0.16836 (  0.3741% of  45)
 --------------------------------------------------------

    Atom  No          Natural Electron Configuration
 ----------------------------------------------------------------------------
      C    1      [core]2S( 0.54)2p( 1.75)
      C    2      [core]2S( 0.43)2p( 1.51)3p( 0.01)
      C    3      [core]2S( 0.46)2p( 1.57)3p( 0.01)
      N    4      [core]2S( 0.60)2p( 2.09)
      C    5      [core]2S( 0.44)2p( 1.44)3p( 0.01)
      N    6      [core]2S( 0.70)2p( 2.05)
      C    7      [core]2S( 0.50)2p( 1.58)
      C    8      [core]2S( 0.51)2p( 1.67)
      C    9      [core]2S( 0.52)2p( 1.71)
      C   10      [core]2S( 0.39)2p( 1.17)3p( 0.01)3d( 0.01)
      O   11      [core]2S( 0.85)2p( 2.46)
      O   12      [core]2S( 0.84)2p( 2.49)
      H   13            1S( 0.40)
      H   14            1S( 0.40)
      H   15            1S( 0.40)
      H   16            1S( 0.39)
      H   17            1S( 0.40)
      H   18            1S( 0.39)
      H   19            1S( 0.40)
      H   20            1S( 0.39)
      H   21            1S( 0.39)
      H   22            1S( 0.38)
      H   23            1S( 0.38)
      H   24            1S( 0.25)2S( 0.01)


 NBO analysis skipped by request.
 1\1\GINC-NODE114\SP\UB3LYP\6-311++G(d,p)\C8H12N2O2(1-,2)\VSC10255\09-D
 ec-2020\0\\# B3LYP/6-311++G(d,p) empiricaldispersion=gd3bj scf=xqc pop
 =npa geom=check\\CID_82512105_JID_2261_Energie_anion\\-1,2\C,0,0.85184
 33358,0.4015371811,-0.3573912401\C,0,0.7175603876,0.1204143178,-1.8200
 054689\C,0,-0.1279888517,-0.7632780759,-2.4515361182\N,0,0.1541865679,
 -0.6663794407,-3.8034402373\C,0,1.1358932355,0.27825231,-3.9231862406\
 N,0,1.503746991,0.7668112743,-2.7564613248\C,0,-0.580158091,-1.2841205
 291,-4.8963261362\C,0,-1.9879707029,-0.6887403439,-5.0670615482\C,0,-2
 .0257276018,0.8408089725,-5.0550180165\C,0,-1.2434364628,1.4900878539,
 -6.1725833639\O,0,-0.5266222606,0.925105678,-6.9733551892\O,0,-1.42448
 41771,2.8305523041,-6.1854399477\H,0,0.1299252184,-0.1808847663,0.2240
 470513\H,0,0.6864440234,1.4643255866,-0.1455189533\H,0,1.8582157191,0.
 1547469938,0.0009278728\H,0,-0.8738961401,-1.4482713712,-2.0757323459\
 H,0,1.5311144523,0.5603166744,-4.8901368983\H,0,-0.0005817099,-1.12599
 59933,-5.8056990304\H,0,-0.6492295628,-2.36233641,-4.7166934665\H,0,-2
 .4060910756,-1.0700788271,-6.0056790648\H,0,-2.6356550608,-1.046396095
 1,-4.2582458052\H,0,-3.0587611675,1.2023694596,-5.1136012609\H,0,-1.62
 75255528,1.2286718963,-4.109090182\H,0,-0.8704415136,3.1736413502,-6.9
 117930854\\Version=ES64L-G16RevA.03\State=2-A\HF=-572.2449126\S2=0.750
 049\S2-1=0.\S2A=0.75\RMSD=4.984e-12\Dipole=1.493659,0.0850497,0.465208
 6\Quadrupole=1.7772761,-0.3538177,-1.4234583,-4.0803125,-6.6082894,9.2
 169266\PG=C01 [X(C8H12N2O2)]\\@


 WE THE UNWILLING
 LED BY THE UNQUALIFIED
 HAVE BEEN DOING THE UNBELIEVABLE SO LONG WITH SO LITTLE
 THAT WE NOW ATTEMPT THE IMPOSSIBLE WITH NOTHING.

                                    -- ANONYMOUS
 Job cpu time:       0 days  0 hours 30 minutes 41.7 seconds.
 Elapsed time:       0 days  0 hours  7 minutes 44.2 seconds.
 File lengths (MBytes):  RWF=    172 Int=      0 D2E=      0 Chk=     16 Scr=      8
 Normal termination of Gaussian 16 at Wed Dec  9 17:23:43 2020.
