 Entering Gaussian System, Link 0=g16
 Initial command:
 /apps/brussel/CO7/skylake/software/Gaussian/G16.A.03-intel-2017b/g16/l1.exe "/scratch/brussel/102/vsc10255/3543015[1022].master01.hydra.brussel.vsc/Gau-161347.inp" -scrdir="/scratch/brussel/102/vsc10255/3543015[1022].master01.hydra.brussel.vsc/"
 Entering Link 1 = /apps/brussel/CO7/skylake/software/Gaussian/G16.A.03-intel-2017b/g16/l1.exe.bin PID=    161350.
  
 Copyright (c) 1988,1990,1992,1993,1995,1998,2003,2009,2016,
            Gaussian, Inc.  All Rights Reserved.
  
 This is part of the Gaussian(R) 16 program.  It is based on
 the Gaussian(R) 09 system (copyright 2009, Gaussian, Inc.),
 the Gaussian(R) 03 system (copyright 2003, Gaussian, Inc.),
 the Gaussian(R) 98 system (copyright 1998, Gaussian, Inc.),
 the Gaussian(R) 94 system (copyright 1995, Gaussian, Inc.),
 the Gaussian 92(TM) system (copyright 1992, Gaussian, Inc.),
 the Gaussian 90(TM) system (copyright 1990, Gaussian, Inc.),
 the Gaussian 88(TM) system (copyright 1988, Gaussian, Inc.),
 the Gaussian 86(TM) system (copyright 1986, Carnegie Mellon
 University), and the Gaussian 82(TM) system (copyright 1983,
 Carnegie Mellon University). Gaussian is a federally registered
 trademark of Gaussian, Inc.
  
 This software contains proprietary and confidential information,
 including trade secrets, belonging to Gaussian, Inc.
  
 This software is provided under written license and may be
 used, copied, transmitted, or stored only in accord with that
 written license.
  
 The following legend is applicable only to US Government
 contracts under FAR:
  
                    RESTRICTED RIGHTS LEGEND
  
 Use, reproduction and disclosure by the US Government is
 subject to restrictions as set forth in subparagraphs (a)
 and (c) of the Commercial Computer Software - Restricted
 Rights clause in FAR 52.227-19.
  
 Gaussian, Inc.
 340 Quinnipiac St., Bldg. 40, Wallingford CT 06492
  
  
 ---------------------------------------------------------------
 Warning -- This program may not be used in any manner that
 competes with the business of Gaussian, Inc. or will provide
 assistance to any competitor of Gaussian, Inc.  The licensee
 of this program is prohibited from giving any competitor of
 Gaussian, Inc. access to this program.  By using this program,
 the user acknowledges that Gaussian, Inc. is engaged in the
 business of creating and licensing software in the field of
 computational chemistry and represents and warrants to the
 licensee that it is not a competitor of Gaussian, Inc. and that
 it will not use this program in any manner prohibited above.
 ---------------------------------------------------------------
  

 Cite this work as:
 Gaussian 16, Revision A.03,
 M. J. Frisch, G. W. Trucks, H. B. Schlegel, G. E. Scuseria, 
 M. A. Robb, J. R. Cheeseman, G. Scalmani, V. Barone, 
 G. A. Petersson, H. Nakatsuji, X. Li, M. Caricato, A. V. Marenich, 
 J. Bloino, B. G. Janesko, R. Gomperts, B. Mennucci, H. P. Hratchian, 
 J. V. Ortiz, A. F. Izmaylov, J. L. Sonnenberg, D. Williams-Young, 
 F. Ding, F. Lipparini, F. Egidi, J. Goings, B. Peng, A. Petrone, 
 T. Henderson, D. Ranasinghe, V. G. Zakrzewski, J. Gao, N. Rega, 
 G. Zheng, W. Liang, M. Hada, M. Ehara, K. Toyota, R. Fukuda, 
 J. Hasegawa, M. Ishida, T. Nakajima, Y. Honda, O. Kitao, H. Nakai, 
 T. Vreven, K. Throssell, J. A. Montgomery, Jr., J. E. Peralta, 
 F. Ogliaro, M. J. Bearpark, J. J. Heyd, E. N. Brothers, K. N. Kudin, 
 V. N. Staroverov, T. A. Keith, R. Kobayashi, J. Normand, 
 K. Raghavachari, A. P. Rendell, J. C. Burant, S. S. Iyengar, 
 J. Tomasi, M. Cossi, J. M. Millam, M. Klene, C. Adamo, R. Cammi, 
 J. W. Ochterski, R. L. Martin, K. Morokuma, O. Farkas, 
 J. B. Foresman, and D. J. Fox, Gaussian, Inc., Wallingford CT, 2016.
 
 ******************************************
 Gaussian 16:  ES64L-G16RevA.03 25-Dec-2016
                 8-Dec-2020 
 ******************************************
 %chk=JID_1022.chk
 %mem=8GB
 %nprocshared=4
 Will use up to    4 processors via shared memory.
 -----------------------------------------------------------
 # opt freq B3LYP/6-31G(d) empiricaldispersion=gd3bj scf=xqc
 -----------------------------------------------------------
 1/18=20,19=15,26=3,38=1/1,3;
 2/9=110,12=2,17=6,18=5,40=1/2;
 3/5=1,6=6,7=1,11=2,25=1,30=1,71=1,74=-5,124=41/1,2,3;
 4//1;
 5/5=2,8=3,13=1,38=5/2,8;
 6/7=2,8=2,9=2,10=2,28=1/1;
 7//1,2,3,16;
 1/18=20,19=15,26=3/3(2);
 2/9=110/2;
 99//99;
 2/9=110/2;
 3/5=1,6=6,7=1,11=2,25=1,30=1,71=1,74=-5,124=41/1,2,3;
 4/5=5,16=3,69=1/1;
 5/5=2,8=3,13=1,38=5/2,8;
 7//1,2,3,16;
 1/18=20,19=15,26=3/3(-5);
 2/9=110/2;
 6/7=2,8=2,9=2,10=2,19=2,28=1/1;
 99/9=1/99;
 ------------------------------
 CID_70323194_JID_1022_neutraal
 ------------------------------
 Symbolic Z-matrix:
 Charge =  0 Multiplicity = 1
 C                    -1.747     0.004    -0.451 
 C                    -0.59511  -0.00419   0.54216 
 C                     0.47565   1.09718   0.36055 
 C                     1.33123   0.07902  -0.44546 
 C                     0.52586  -1.03697   0.28039 
 C                     2.88996   0.07985  -0.29195 
 N                     3.48837  -1.08413  -0.66289 
 C                     4.8367   -1.13443  -0.55645 
 C                     5.58529  -0.0671   -0.09783 
 N                     5.0203    1.10056   0.27139 
 C                     3.66964   1.1454    0.16036 
 H                    -2.39217   0.87197  -0.28104 
 H                    -1.3963    0.04173  -1.48727 
 H                    -2.35847  -0.89654  -0.33412 
 H                    -0.98963  -0.05097   1.56498 
 H                     0.16196   1.98696  -0.19338 
 H                     0.92104   1.41795   1.30999 
 H                     1.06644   0.11723  -1.51408 
 H                     0.99795  -1.40477   1.1998 
 H                     0.25376  -1.89744  -0.33789 
 H                     5.30182  -2.06688  -0.85417 
 H                     6.66443  -0.12313  -0.01618 
 H                     3.21625   2.08658   0.45227 
 

 GradGradGradGradGradGradGradGradGradGradGradGradGradGradGradGradGradGrad
 Berny optimization.
 Initialization pass.
                           ----------------------------
                           !    Initial Parameters    !
                           ! (Angstroms and Degrees)  !
 --------------------------                            --------------------------
 ! Name  Definition              Value          Derivative Info.                !
 --------------------------------------------------------------------------------
 ! R1    R(1,2)                  1.5209         estimate D2E/DX2                !
 ! R2    R(1,12)                 1.0948         estimate D2E/DX2                !
 ! R3    R(1,13)                 1.0947         estimate D2E/DX2                !
 ! R4    R(1,14)                 1.0948         estimate D2E/DX2                !
 ! R5    R(2,3)                  1.5468         estimate D2E/DX2                !
 ! R6    R(2,5)                  1.5465         estimate D2E/DX2                !
 ! R7    R(2,15)                 1.0973         estimate D2E/DX2                !
 ! R8    R(3,4)                  1.5551         estimate D2E/DX2                !
 ! R9    R(3,16)                 1.0941         estimate D2E/DX2                !
 ! R10   R(3,17)                 1.0967         estimate D2E/DX2                !
 ! R11   R(4,5)                  1.5559         estimate D2E/DX2                !
 ! R12   R(4,6)                  1.5663         estimate D2E/DX2                !
 ! R13   R(4,18)                 1.1016         estimate D2E/DX2                !
 ! R14   R(5,19)                 1.097          estimate D2E/DX2                !
 ! R15   R(5,20)                 1.0939         estimate D2E/DX2                !
 ! R16   R(6,7)                  1.3603         estimate D2E/DX2                !
 ! R17   R(6,11)                 1.3957         estimate D2E/DX2                !
 ! R18   R(7,8)                  1.3535         estimate D2E/DX2                !
 ! R19   R(8,9)                  1.382          estimate D2E/DX2                !
 ! R20   R(8,21)                 1.0837         estimate D2E/DX2                !
 ! R21   R(9,10)                 1.3487         estimate D2E/DX2                !
 ! R22   R(9,22)                 1.0837         estimate D2E/DX2                !
 ! R23   R(10,11)                1.356          estimate D2E/DX2                !
 ! R24   R(11,23)                1.0847         estimate D2E/DX2                !
 ! A1    A(2,1,12)             110.4396         estimate D2E/DX2                !
 ! A2    A(2,1,13)             112.0681         estimate D2E/DX2                !
 ! A3    A(2,1,14)             110.4178         estimate D2E/DX2                !
 ! A4    A(12,1,13)            107.9656         estimate D2E/DX2                !
 ! A5    A(12,1,14)            107.8449         estimate D2E/DX2                !
 ! A6    A(13,1,14)            107.9605         estimate D2E/DX2                !
 ! A7    A(1,2,3)              116.3449         estimate D2E/DX2                !
 ! A8    A(1,2,5)              116.2329         estimate D2E/DX2                !
 ! A9    A(1,2,15)             109.6704         estimate D2E/DX2                !
 ! A10   A(3,2,5)               87.3558         estimate D2E/DX2                !
 ! A11   A(3,2,15)             112.8736         estimate D2E/DX2                !
 ! A12   A(5,2,15)             112.9496         estimate D2E/DX2                !
 ! A13   A(2,3,4)               88.5976         estimate D2E/DX2                !
 ! A14   A(2,3,16)             116.1075         estimate D2E/DX2                !
 ! A15   A(2,3,17)             112.8152         estimate D2E/DX2                !
 ! A16   A(4,3,16)             115.3285         estimate D2E/DX2                !
 ! A17   A(4,3,17)             114.6313         estimate D2E/DX2                !
 ! A18   A(16,3,17)            108.4755         estimate D2E/DX2                !
 ! A19   A(3,4,5)               86.7341         estimate D2E/DX2                !
 ! A20   A(3,4,6)              119.7611         estimate D2E/DX2                !
 ! A21   A(3,4,18)             110.3547         estimate D2E/DX2                !
 ! A22   A(5,4,6)              118.02           estimate D2E/DX2                !
 ! A23   A(5,4,18)             110.6709         estimate D2E/DX2                !
 ! A24   A(6,4,18)             109.5281         estimate D2E/DX2                !
 ! A25   A(2,5,4)               88.5767         estimate D2E/DX2                !
 ! A26   A(2,5,19)             113.2011         estimate D2E/DX2                !
 ! A27   A(2,5,20)             116.1458         estimate D2E/DX2                !
 ! A28   A(4,5,19)             114.1233         estimate D2E/DX2                !
 ! A29   A(4,5,20)             115.4204         estimate D2E/DX2                !
 ! A30   A(19,5,20)            108.4816         estimate D2E/DX2                !
 ! A31   A(4,6,7)              114.2425         estimate D2E/DX2                !
 ! A32   A(4,6,11)             126.0239         estimate D2E/DX2                !
 ! A33   A(7,6,11)             119.7285         estimate D2E/DX2                !
 ! A34   A(6,7,8)              116.6528         estimate D2E/DX2                !
 ! A35   A(7,8,9)              122.4807         estimate D2E/DX2                !
 ! A36   A(7,8,21)             115.9722         estimate D2E/DX2                !
 ! A37   A(9,8,21)             121.547          estimate D2E/DX2                !
 ! A38   A(8,9,10)             122.1798         estimate D2E/DX2                !
 ! A39   A(8,9,22)             121.6332         estimate D2E/DX2                !
 ! A40   A(10,9,22)            116.187          estimate D2E/DX2                !
 ! A41   A(9,10,11)            115.0554         estimate D2E/DX2                !
 ! A42   A(6,11,10)            123.9004         estimate D2E/DX2                !
 ! A43   A(6,11,23)            121.075          estimate D2E/DX2                !
 ! A44   A(10,11,23)           115.0246         estimate D2E/DX2                !
 ! D1    D(12,1,2,3)           -69.5551         estimate D2E/DX2                !
 ! D2    D(12,1,2,5)          -170.3115         estimate D2E/DX2                !
 ! D3    D(12,1,2,15)           60.0618         estimate D2E/DX2                !
 ! D4    D(13,1,2,3)            50.8614         estimate D2E/DX2                !
 ! D5    D(13,1,2,5)           -49.895          estimate D2E/DX2                !
 ! D6    D(13,1,2,15)         -179.5217         estimate D2E/DX2                !
 ! D7    D(14,1,2,3)           171.2563         estimate D2E/DX2                !
 ! D8    D(14,1,2,5)            70.4999         estimate D2E/DX2                !
 ! D9    D(14,1,2,15)          -59.1267         estimate D2E/DX2                !
 ! D10   D(1,2,3,4)            -95.9341         estimate D2E/DX2                !
 ! D11   D(1,2,3,16)            21.7478         estimate D2E/DX2                !
 ! D12   D(1,2,3,17)           147.835          estimate D2E/DX2                !
 ! D13   D(5,2,3,4)             22.159          estimate D2E/DX2                !
 ! D14   D(5,2,3,16)           139.8409         estimate D2E/DX2                !
 ! D15   D(5,2,3,17)           -94.0719         estimate D2E/DX2                !
 ! D16   D(15,2,3,4)           135.998          estimate D2E/DX2                !
 ! D17   D(15,2,3,16)         -106.3202         estimate D2E/DX2                !
 ! D18   D(15,2,3,17)           19.7671         estimate D2E/DX2                !
 ! D19   D(1,2,5,4)             96.0499         estimate D2E/DX2                !
 ! D20   D(1,2,5,19)          -148.219          estimate D2E/DX2                !
 ! D21   D(1,2,5,20)           -21.734          estimate D2E/DX2                !
 ! D22   D(3,2,5,4)            -22.1467         estimate D2E/DX2                !
 ! D23   D(3,2,5,19)            93.5844         estimate D2E/DX2                !
 ! D24   D(3,2,5,20)          -139.9306         estimate D2E/DX2                !
 ! D25   D(15,2,5,4)          -135.9129         estimate D2E/DX2                !
 ! D26   D(15,2,5,19)          -20.1817         estimate D2E/DX2                !
 ! D27   D(15,2,5,20)          106.3032         estimate D2E/DX2                !
 ! D28   D(2,3,4,5)            -22.031          estimate D2E/DX2                !
 ! D29   D(2,3,4,6)           -142.6555         estimate D2E/DX2                !
 ! D30   D(2,3,4,18)            88.8208         estimate D2E/DX2                !
 ! D31   D(16,3,4,5)          -140.4176         estimate D2E/DX2                !
 ! D32   D(16,3,4,6)            98.958          estimate D2E/DX2                !
 ! D33   D(16,3,4,18)          -29.5657         estimate D2E/DX2                !
 ! D34   D(17,3,4,5)            92.5184         estimate D2E/DX2                !
 ! D35   D(17,3,4,6)           -28.1061         estimate D2E/DX2                !
 ! D36   D(17,3,4,18)         -156.6298         estimate D2E/DX2                !
 ! D37   D(3,4,5,2)             22.0351         estimate D2E/DX2                !
 ! D38   D(3,4,5,19)           -92.8414         estimate D2E/DX2                !
 ! D39   D(3,4,5,20)           140.4748         estimate D2E/DX2                !
 ! D40   D(6,4,5,2)            144.2328         estimate D2E/DX2                !
 ! D41   D(6,4,5,19)            29.3563         estimate D2E/DX2                !
 ! D42   D(6,4,5,20)           -97.3274         estimate D2E/DX2                !
 ! D43   D(18,4,5,2)           -88.5036         estimate D2E/DX2                !
 ! D44   D(18,4,5,19)          156.6199         estimate D2E/DX2                !
 ! D45   D(18,4,5,20)           29.9362         estimate D2E/DX2                !
 ! D46   D(3,4,6,7)            159.1577         estimate D2E/DX2                !
 ! D47   D(3,4,6,11)           -21.6834         estimate D2E/DX2                !
 ! D48   D(5,4,6,7)             55.8635         estimate D2E/DX2                !
 ! D49   D(5,4,6,11)          -124.9775         estimate D2E/DX2                !
 ! D50   D(18,4,6,7)           -71.9444         estimate D2E/DX2                !
 ! D51   D(18,4,6,11)          107.2145         estimate D2E/DX2                !
 ! D52   D(4,6,7,8)            179.6676         estimate D2E/DX2                !
 ! D53   D(11,6,7,8)             0.4509         estimate D2E/DX2                !
 ! D54   D(4,6,11,10)         -179.7167         estimate D2E/DX2                !
 ! D55   D(4,6,11,23)            0.2695         estimate D2E/DX2                !
 ! D56   D(7,6,11,10)           -0.5998         estimate D2E/DX2                !
 ! D57   D(7,6,11,23)          179.3864         estimate D2E/DX2                !
 ! D58   D(6,7,8,9)             -0.0763         estimate D2E/DX2                !
 ! D59   D(6,7,8,21)           179.9584         estimate D2E/DX2                !
 ! D60   D(7,8,9,10)            -0.2079         estimate D2E/DX2                !
 ! D61   D(7,8,9,22)           179.8713         estimate D2E/DX2                !
 ! D62   D(21,8,9,10)          179.7555         estimate D2E/DX2                !
 ! D63   D(21,8,9,22)           -0.1653         estimate D2E/DX2                !
 ! D64   D(8,9,10,11)            0.089          estimate D2E/DX2                !
 ! D65   D(22,9,10,11)        -179.9862         estimate D2E/DX2                !
 ! D66   D(9,10,11,6)            0.3084         estimate D2E/DX2                !
 ! D67   D(9,10,11,23)        -179.6786         estimate D2E/DX2                !
 --------------------------------------------------------------------------------
 Trust Radius=3.00D-01 FncErr=1.00D-07 GrdErr=1.00D-06 EigMax=2.50D+02 EigMin=1.00D-04
 Number of steps in this run=    138 maximum allowed number of steps=    138.
 GradGradGradGradGradGradGradGradGradGradGradGradGradGradGradGradGradGrad

                          Input orientation:                          
 ---------------------------------------------------------------------
 Center     Atomic      Atomic             Coordinates (Angstroms)
 Number     Number       Type             X           Y           Z
 ---------------------------------------------------------------------
      1          6           0       -1.747000    0.004000   -0.451000
      2          6           0       -0.595110   -0.004190    0.542160
      3          6           0        0.475650    1.097180    0.360550
      4          6           0        1.331230    0.079020   -0.445460
      5          6           0        0.525860   -1.036970    0.280390
      6          6           0        2.889960    0.079850   -0.291950
      7          7           0        3.488370   -1.084130   -0.662890
      8          6           0        4.836700   -1.134430   -0.556450
      9          6           0        5.585290   -0.067100   -0.097830
     10          7           0        5.020300    1.100560    0.271390
     11          6           0        3.669640    1.145400    0.160360
     12          1           0       -2.392170    0.871970   -0.281040
     13          1           0       -1.396300    0.041730   -1.487270
     14          1           0       -2.358470   -0.896540   -0.334120
     15          1           0       -0.989630   -0.050970    1.564980
     16          1           0        0.161960    1.986960   -0.193380
     17          1           0        0.921040    1.417950    1.309990
     18          1           0        1.066440    0.117230   -1.514080
     19          1           0        0.997950   -1.404770    1.199800
     20          1           0        0.253760   -1.897440   -0.337890
     21          1           0        5.301820   -2.066880   -0.854170
     22          1           0        6.664430   -0.123130   -0.016180
     23          1           0        3.216250    2.086580    0.452270
 ---------------------------------------------------------------------
                    Distance matrix (angstroms):
                    1          2          3          4          5
     1  C    0.000000
     2  C    1.520949   0.000000
     3  C    2.606497   1.546779   0.000000
     4  C    3.079149   2.166357   1.555095   0.000000
     5  C    2.604696   1.546522   2.136245   1.555928   0.000000
     6  C    4.640307   3.584483   2.699928   1.566271   2.676533
     7  N    5.351451   4.392405   3.857723   2.460375   3.109416
     8  C    6.682234   5.655877   4.983947   3.711213   4.392396
     9  C    7.341135   6.213766   5.260616   4.270740   5.165417
    10  N    6.893522   5.729452   4.545526   3.894439   4.976857
    11  C    5.569250   4.433443   3.200621   2.640520   3.828903
    12  H    1.094761   2.162115   2.947329   3.810448   3.531877
    13  H    1.094655   2.182338   2.834186   2.919962   2.825405
    14  H    1.094773   2.161850   3.534080   3.818115   2.952406
    15  H    2.154253   1.097267   2.217193   3.073298   2.217899
    16  H    2.764530   2.253631   1.094051   2.251882   3.082375
    17  H    3.495537   2.216023   1.096678   2.245572   2.691259
    18  H    3.009718   2.646434   2.196263   1.101600   2.201029
    19  H    3.499218   2.220801   2.690147   2.240444   1.097023
    20  H    2.762482   2.253767   3.082986   2.253643   1.093946
    21  H    7.357782   6.401423   5.897350   4.531834   5.015749
    22  H    8.423621   7.281951   6.319183   5.354266   6.213300
    23  H    5.457736   4.348087   2.915170   2.896466   4.126052
                    6          7          8          9         10
     6  C    0.000000
     7  N    1.360346   0.000000
     8  C    2.309596   1.353460   0.000000
     9  C    2.706304   2.398065   1.381996   0.000000
    10  N    2.428487   2.827111   2.390441   1.348691   0.000000
    11  C    1.395665   2.383569   2.659600   2.281783   1.355957
    12  H    5.341205   6.209097   7.507200   8.034630   7.436541
    13  H    4.449974   5.080075   6.410933   7.119339   6.736970
    14  H    5.338645   5.859080   7.202534   7.990440   7.668200
    15  H    4.303083   5.107182   6.294479   6.781944   6.254491
    16  H    3.329980   4.551597   5.632769   5.800069   4.960361
    17  H    2.869385   4.091924   5.032955   5.093384   4.240679
    18  H    2.195501   2.834349   4.086388   4.739172   4.448354
    19  H    2.830038   3.126438   4.230071   4.951454   4.828864
    20  H    3.295654   3.351089   4.651160   5.642073   5.663844
    21  H    3.277440   2.071470   1.083714   2.156740   3.373250
    22  H    3.789970   3.380697   2.157595   1.083674   2.069608
    23  H    2.165016   3.372096   3.744099   3.248584   2.063868
                   11         12         13         14         15
    11  C    0.000000
    12  H    6.084007   0.000000
    13  H    5.440268   1.770889   0.000000
    14  H    6.383740   1.769627   1.770841   0.000000
    15  H    5.011293   2.495341   3.080617   2.489034   0.000000
    16  H    3.624524   2.788273   2.808246   3.832355   2.927652
    17  H    2.991778   3.715754   3.884419   4.337643   2.423511
    18  H    3.261523   3.748600   2.464043   3.761654   3.706255
    19  H    3.836891   4.343886   3.878807   3.725153   2.432407
    20  H    4.601670   3.830641   2.793591   2.797420   2.928546
    21  H    3.743264   8.256077   7.050664   7.766607   7.035519
    22  H    3.257162   9.114954   8.195526   9.061566   7.816003
    23  H    1.084709   5.785101   5.405446   6.371414   4.847336
                   16         17         18         19         20
    16  H    0.000000
    17  H    1.777666   0.000000
    18  H    2.461346   3.112617   0.000000
    19  H    3.760806   2.825917   3.112285   0.000000
    20  H    3.888171   3.761992   2.470378   1.777929   0.000000
    21  H    6.579394   6.001572   4.810848   4.814611   5.077220
    22  H    6.838567   6.092634   5.799911   5.935504   6.659457
    23  H    3.123376   2.539830   3.516611   4.203472   5.027237
                   21         22         23
    21  H    0.000000
    22  H    2.517359   0.000000
    23  H    4.827796   4.122161   0.000000
 Stoichiometry    C9H12N2
 Framework group  C1[X(C9H12N2)]
 Deg. of freedom    63
 Full point group                 C1      NOp   1
 Largest Abelian subgroup         C1      NOp   1
 Largest concise Abelian subgroup C1      NOp   1
                         Standard orientation:                         
 ---------------------------------------------------------------------
 Center     Atomic      Atomic             Coordinates (Angstroms)
 Number     Number       Type             X           Y           Z
 ---------------------------------------------------------------------
      1          6           0       -3.894364   -0.188253   -0.454444
      2          6           0       -2.772557    0.111079    0.528019
      3          6           0       -1.707746    1.132390    0.063663
      4          6           0       -0.818553   -0.059365   -0.391720
      5          6           0       -1.634179   -0.932938    0.604541
      6          6           0        0.734827    0.013789   -0.204996
      7          7           0        1.355446   -1.196731   -0.208492
      8          6           0        2.700435   -1.189892   -0.057457
      9          6           0        3.424490   -0.022340    0.092472
     10          7           0        2.837289    1.191810    0.094118
     11          6           0        1.490162    1.178378   -0.059794
     12          1           0       -4.552819    0.680081   -0.559015
     13          1           0       -3.513327   -0.444660   -1.448092
     14          1           0       -4.500157   -1.027692   -0.098234
     15          1           0       -3.196903    0.354154    1.510282
     16          1           0       -2.013527    1.818817   -0.731489
     17          1           0       -1.294025    1.721311    0.891134
     18          1           0       -1.051743   -0.335733   -1.432280
     19          1           0       -1.186102   -1.011395    1.602806
     20          1           0       -1.879255   -1.939911    0.254315
     21          1           0        3.183370   -2.160045   -0.061164
     22          1           0        4.501216   -0.032987    0.214521
     23          1           0        1.019038    2.155424   -0.063867
 ---------------------------------------------------------------------
 Rotational constants (GHZ):           3.4403794           0.5744822           0.5168035
 Standard basis: 6-31G(d) (6D, 7F)
 There are   189 symmetry adapted cartesian basis functions of A   symmetry.
 There are   189 symmetry adapted basis functions of A   symmetry.
   189 basis functions,   356 primitive gaussians,   189 cartesian basis functions
    40 alpha electrons       40 beta electrons
       nuclear repulsion energy       577.4043998700 Hartrees.
 NAtoms=   23 NActive=   23 NUniq=   23 SFac= 1.00D+00 NAtFMM=   60 NAOKFM=F Big=F
 Integral buffers will be    131072 words long.
 Raffenetti 2 integral format.
 Two-electron integral symmetry is turned on.
 Nuclear repulsion after empirical dispersion term =      577.3640525533 Hartrees.
 One-electron integrals computed using PRISM.
 NBasis=   189 RedAO= T EigKep=  1.27D-03  NBF=   189
 NBsUse=   189 1.00D-06 EigRej= -1.00D+00 NBFU=   189
 ExpMin= 1.61D-01 ExpMax= 4.17D+03 ExpMxC= 6.27D+02 IAcc=3 IRadAn=         5 AccDes= 0.00D+00
 Harris functional with IExCor=  402 and IRadAn=       5 diagonalized for initial guess.
 HarFok:  IExCor=  402 AccDes= 0.00D+00 IRadAn=         5 IDoV= 1 UseB2=F ITyADJ=14
 ICtDFT=  3500011 ScaDFX=  1.000000  1.000000  1.000000  1.000000
 FoFCou: FMM=F IPFlag=           0 FMFlag=      100000 FMFlg1=           0
         NFxFlg=           0 DoJE=T BraDBF=F KetDBF=T FulRan=T
         wScrn=  0.000000 ICntrl=       500 IOpCl=  0 I1Cent=   200000004 NGrid=           0
         NMat0=    1 NMatS0=      1 NMatT0=    0 NMatD0=    1 NMtDS0=    0 NMtDT0=    0
 Petite list used in FoFCou.
 Keep R1 ints in memory in canonical form, NReq=165269228.
 Requested convergence on RMS density matrix=1.00D-08 within  32 cycles.
 Requested convergence on MAX density matrix=1.00D-06.
 Requested convergence on             energy=1.00D-06.
 No special actions if energy rises.
 Integral accuracy reduced to 1.0D-05 until final iterations.
 Initial convergence to 1.0D-05 achieved.  Increase integral accuracy.
 SCF Done:  E(RB3LYP) =  -459.687305292     A.U. after   14 cycles
            NFock= 14  Conv=0.43D-08     -V/T= 2.0101
 QCSCF skips out because SCF is already converged.

 **********************************************************************

            Population analysis using the SCF density.

 **********************************************************************

 Orbital symmetries:
       Occupied  (A) (A) (A) (A) (A) (A) (A) (A) (A) (A) (A) (A)
                 (A) (A) (A) (A) (A) (A) (A) (A) (A) (A) (A) (A)
                 (A) (A) (A) (A) (A) (A) (A) (A) (A) (A) (A) (A)
                 (A) (A) (A) (A)
       Virtual   (A) (A) (A) (A) (A) (A) (A) (A) (A) (A) (A) (A)
                 (A) (A) (A) (A) (A) (A) (A) (A) (A) (A) (A) (A)
                 (A) (A) (A) (A) (A) (A) (A) (A) (A) (A) (A) (A)
                 (A) (A) (A) (A) (A) (A) (A) (A) (A) (A) (A) (A)
                 (A) (A) (A) (A) (A) (A) (A) (A) (A) (A) (A) (A)
                 (A) (A) (A) (A) (A) (A) (A) (A) (A) (A) (A) (A)
                 (A) (A) (A) (A) (A) (A) (A) (A) (A) (A) (A) (A)
                 (A) (A) (A) (A) (A) (A) (A) (A) (A) (A) (A) (A)
                 (A) (A) (A) (A) (A) (A) (A) (A) (A) (A) (A) (A)
                 (A) (A) (A) (A) (A) (A) (A) (A) (A) (A) (A) (A)
                 (A) (A) (A) (A) (A) (A) (A) (A) (A) (A) (A) (A)
                 (A) (A) (A) (A) (A) (A) (A) (A) (A) (A) (A) (A)
                 (A) (A) (A) (A) (A)
 The electronic state is 1-A.
 Alpha  occ. eigenvalues --  -14.34978 -14.34570 -10.23814 -10.23027 -10.22929
 Alpha  occ. eigenvalues --  -10.22817 -10.20172 -10.18790 -10.18376 -10.18111
 Alpha  occ. eigenvalues --  -10.17736  -0.96993  -0.89677  -0.85398  -0.77767
 Alpha  occ. eigenvalues --   -0.72237  -0.66548  -0.66153  -0.64827  -0.60562
 Alpha  occ. eigenvalues --   -0.53395  -0.51737  -0.50845  -0.49039  -0.47209
 Alpha  occ. eigenvalues --   -0.45487  -0.42093  -0.41678  -0.40972  -0.38632
 Alpha  occ. eigenvalues --   -0.38490  -0.37532  -0.33617  -0.32404  -0.31925
 Alpha  occ. eigenvalues --   -0.30309  -0.30164  -0.29729  -0.26363  -0.24580
 Alpha virt. eigenvalues --   -0.05066  -0.01402   0.08698   0.09182   0.11492
 Alpha virt. eigenvalues --    0.12679   0.13474   0.14041   0.14796   0.15214
 Alpha virt. eigenvalues --    0.16208   0.16890   0.17214   0.18370   0.19226
 Alpha virt. eigenvalues --    0.20248   0.21455   0.23250   0.24102   0.25422
 Alpha virt. eigenvalues --    0.26954   0.31080   0.33951   0.35156   0.36272
 Alpha virt. eigenvalues --    0.42530   0.46159   0.50199   0.50636   0.51256
 Alpha virt. eigenvalues --    0.51710   0.52872   0.54297   0.55231   0.57031
 Alpha virt. eigenvalues --    0.59572   0.60387   0.62196   0.62536   0.62668
 Alpha virt. eigenvalues --    0.63553   0.65062   0.65814   0.67909   0.68397
 Alpha virt. eigenvalues --    0.69142   0.71558   0.74868   0.77905   0.81261
 Alpha virt. eigenvalues --    0.81571   0.83298   0.83632   0.84808   0.85329
 Alpha virt. eigenvalues --    0.85562   0.86250   0.87683   0.88473   0.89880
 Alpha virt. eigenvalues --    0.90236   0.90759   0.92122   0.93704   0.93922
 Alpha virt. eigenvalues --    0.95330   0.97832   0.98025   1.00339   1.03922
 Alpha virt. eigenvalues --    1.06868   1.08526   1.11651   1.13362   1.18400
 Alpha virt. eigenvalues --    1.23908   1.26491   1.32078   1.37186   1.39375
 Alpha virt. eigenvalues --    1.41834   1.44993   1.48168   1.50235   1.51520
 Alpha virt. eigenvalues --    1.51682   1.57520   1.60687   1.63812   1.67070
 Alpha virt. eigenvalues --    1.70587   1.74440   1.75252   1.77736   1.81929
 Alpha virt. eigenvalues --    1.83323   1.84974   1.89793   1.92408   1.94003
 Alpha virt. eigenvalues --    1.97378   1.98633   2.01038   2.02414   2.04124
 Alpha virt. eigenvalues --    2.10622   2.10730   2.14216   2.14404   2.15924
 Alpha virt. eigenvalues --    2.17361   2.21515   2.22003   2.23116   2.27381
 Alpha virt. eigenvalues --    2.30937   2.33378   2.33524   2.37958   2.39346
 Alpha virt. eigenvalues --    2.40998   2.43162   2.47096   2.52699   2.54958
 Alpha virt. eigenvalues --    2.57384   2.59568   2.62104   2.65051   2.69689
 Alpha virt. eigenvalues --    2.71034   2.72559   2.74995   2.83382   2.85781
 Alpha virt. eigenvalues --    2.88783   3.11914   3.37303   3.89649   4.07400
 Alpha virt. eigenvalues --    4.12583   4.15760   4.23251   4.28010   4.34103
 Alpha virt. eigenvalues --    4.38362   4.48151   4.54592   4.77285
          Condensed to atoms (all electrons):
               1          2          3          4          5          6
     1  C    5.079505   0.380210  -0.041130  -0.000399  -0.040603   0.000189
     2  C    0.380210   4.951893   0.359745  -0.125127   0.359173   0.005818
     3  C   -0.041130   0.359745   5.172440   0.341936  -0.179713  -0.030487
     4  C   -0.000399  -0.125127   0.341936   5.103526   0.349237   0.352706
     5  C   -0.040603   0.359173  -0.179713   0.349237   5.130848  -0.026220
     6  C    0.000189   0.005818  -0.030487   0.352706  -0.026220   4.747690
     7  N   -0.000006   0.000097   0.003263  -0.078614   0.000067   0.401390
     8  C    0.000000   0.000004  -0.000140   0.005778   0.000119  -0.053974
     9  C   -0.000000   0.000001   0.000001   0.000398   0.000018  -0.031720
    10  N   -0.000000   0.000000   0.000074   0.003882  -0.000070  -0.024078
    11  C    0.000001   0.000153  -0.001858  -0.055592   0.001176   0.469901
    12  H    0.370073  -0.028899  -0.004504  -0.000456   0.004798  -0.000001
    13  H    0.376998  -0.039918  -0.003872   0.003743  -0.004152  -0.000023
    14  H    0.371148  -0.028916   0.004879  -0.000422  -0.004206  -0.000002
    15  H   -0.043011   0.372046  -0.036779   0.010061  -0.036704  -0.000366
    16  H   -0.005468  -0.033088   0.356919  -0.024825   0.012456   0.000731
    17  H    0.004212  -0.025662   0.363096  -0.033256   0.002774  -0.003739
    18  H    0.002664   0.001919  -0.036847   0.354945  -0.034117  -0.022279
    19  H    0.004233  -0.027300   0.003944  -0.035452   0.365588  -0.001515
    20  H   -0.005400  -0.034584   0.012281  -0.023565   0.361751  -0.000884
    21  H    0.000000  -0.000000   0.000001  -0.000156  -0.000009   0.006004
    22  H    0.000000  -0.000000  -0.000000   0.000021  -0.000000   0.000297
    23  H    0.000003  -0.000085   0.002141  -0.001137   0.000083  -0.059625
               7          8          9         10         11         12
     1  C   -0.000006   0.000000  -0.000000  -0.000000   0.000001   0.370073
     2  C    0.000097   0.000004   0.000001   0.000000   0.000153  -0.028899
     3  C    0.003263  -0.000140   0.000001   0.000074  -0.001858  -0.004504
     4  C   -0.078614   0.005778   0.000398   0.003882  -0.055592  -0.000456
     5  C    0.000067   0.000119   0.000018  -0.000070   0.001176   0.004798
     6  C    0.401390  -0.053974  -0.031720  -0.024078   0.469901  -0.000001
     7  N    6.819190   0.451747  -0.033341  -0.035007  -0.049790   0.000000
     8  C    0.451747   4.851137   0.470078  -0.035305  -0.036120  -0.000000
     9  C   -0.033341   0.470078   4.868090   0.458771  -0.079450   0.000000
    10  N   -0.035007  -0.035305   0.458771   6.676173   0.442736   0.000000
    11  C   -0.049790  -0.036120  -0.079450   0.442736   4.937243  -0.000000
    12  H    0.000000  -0.000000   0.000000   0.000000  -0.000000   0.574609
    13  H    0.000004  -0.000000  -0.000000  -0.000000   0.000000  -0.031156
    14  H   -0.000000   0.000000  -0.000000  -0.000000  -0.000000  -0.030504
    15  H    0.000007  -0.000000   0.000000  -0.000000  -0.000005  -0.003184
    16  H   -0.000053   0.000002   0.000000   0.000000   0.000301   0.002471
    17  H    0.000042  -0.000007  -0.000006  -0.000050   0.001847   0.000035
    18  H   -0.001349  -0.000028   0.000025  -0.000085   0.001543  -0.000051
    19  H    0.001103  -0.000100  -0.000014  -0.000010   0.000699  -0.000148
    20  H    0.001049   0.000005   0.000000   0.000001  -0.000100   0.000029
    21  H   -0.052459   0.365797  -0.057697   0.003903   0.000465  -0.000000
    22  H    0.003871  -0.055713   0.368328  -0.053128   0.006175   0.000000
    23  H    0.004389   0.000054   0.006339  -0.054523   0.370874  -0.000000
              13         14         15         16         17         18
     1  C    0.376998   0.371148  -0.043011  -0.005468   0.004212   0.002664
     2  C   -0.039918  -0.028916   0.372046  -0.033088  -0.025662   0.001919
     3  C   -0.003872   0.004879  -0.036779   0.356919   0.363096  -0.036847
     4  C    0.003743  -0.000422   0.010061  -0.024825  -0.033256   0.354945
     5  C   -0.004152  -0.004206  -0.036704   0.012456   0.002774  -0.034117
     6  C   -0.000023  -0.000002  -0.000366   0.000731  -0.003739  -0.022279
     7  N    0.000004  -0.000000   0.000007  -0.000053   0.000042  -0.001349
     8  C   -0.000000   0.000000  -0.000000   0.000002  -0.000007  -0.000028
     9  C   -0.000000  -0.000000   0.000000   0.000000  -0.000006   0.000025
    10  N   -0.000000  -0.000000  -0.000000   0.000000  -0.000050  -0.000085
    11  C    0.000000  -0.000000  -0.000005   0.000301   0.001847   0.001543
    12  H   -0.031156  -0.030504  -0.003184   0.002471   0.000035  -0.000051
    13  H    0.576420  -0.030921   0.005534   0.001065  -0.000032   0.001509
    14  H   -0.030921   0.571609  -0.003411   0.000021  -0.000145  -0.000037
    15  H    0.005534  -0.003411   0.622002   0.002523  -0.007556  -0.000350
    16  H    0.001065   0.000021   0.002523   0.595472  -0.035026  -0.006550
    17  H   -0.000032  -0.000145  -0.007556  -0.035026   0.583882   0.004551
    18  H    0.001509  -0.000037  -0.000350  -0.006550   0.004551   0.579699
    19  H   -0.000030   0.000038  -0.007397  -0.000380   0.002353   0.004448
    20  H    0.001169   0.002340   0.002577  -0.000617  -0.000355  -0.006687
    21  H    0.000000  -0.000000   0.000000  -0.000000   0.000000   0.000000
    22  H   -0.000000  -0.000000  -0.000000   0.000000  -0.000000  -0.000000
    23  H    0.000000  -0.000000   0.000004   0.000216   0.001796   0.000011
              19         20         21         22         23
     1  C    0.004233  -0.005400   0.000000   0.000000   0.000003
     2  C   -0.027300  -0.034584  -0.000000  -0.000000  -0.000085
     3  C    0.003944   0.012281   0.000001  -0.000000   0.002141
     4  C   -0.035452  -0.023565  -0.000156   0.000021  -0.001137
     5  C    0.365588   0.361751  -0.000009  -0.000000   0.000083
     6  C   -0.001515  -0.000884   0.006004   0.000297  -0.059625
     7  N    0.001103   0.001049  -0.052459   0.003871   0.004389
     8  C   -0.000100   0.000005   0.365797  -0.055713   0.000054
     9  C   -0.000014   0.000000  -0.057697   0.368328   0.006339
    10  N   -0.000010   0.000001   0.003903  -0.053128  -0.054523
    11  C    0.000699  -0.000100   0.000465   0.006175   0.370874
    12  H   -0.000148   0.000029  -0.000000   0.000000  -0.000000
    13  H   -0.000030   0.001169   0.000000  -0.000000   0.000000
    14  H    0.000038   0.002340  -0.000000  -0.000000  -0.000000
    15  H   -0.007397   0.002577   0.000000  -0.000000   0.000004
    16  H   -0.000380  -0.000617  -0.000000   0.000000   0.000216
    17  H    0.002353  -0.000355   0.000000  -0.000000   0.001796
    18  H    0.004448  -0.006687   0.000000  -0.000000   0.000011
    19  H    0.578679  -0.032410   0.000002  -0.000000  -0.000016
    20  H   -0.032410   0.582087   0.000000   0.000000  -0.000004
    21  H    0.000002   0.000000   0.584258   0.000805   0.000039
    22  H   -0.000000   0.000000   0.000805   0.580203  -0.000110
    23  H   -0.000016  -0.000004   0.000039  -0.000110   0.580417
 Mulliken charges:
               1
     1  C   -0.453217
     2  C   -0.087481
     3  C   -0.285392
     4  C   -0.147233
     5  C   -0.262292
     6  C    0.270185
     7  N   -0.435602
     8  C    0.036667
     9  C    0.030180
    10  N   -0.383284
    11  C   -0.010201
    12  H    0.146890
    13  H    0.143660
    14  H    0.148531
    15  H    0.124010
    16  H    0.133830
    17  H    0.141247
    18  H    0.157069
    19  H    0.143683
    20  H    0.141316
    21  H    0.149047
    22  H    0.149253
    23  H    0.149133
 Sum of Mulliken charges =   0.00000
 Mulliken charges with hydrogens summed into heavy atoms:
               1
     1  C   -0.014136
     2  C    0.036529
     3  C   -0.010315
     4  C    0.009836
     5  C    0.022708
     6  C    0.270185
     7  N   -0.435602
     8  C    0.185714
     9  C    0.179433
    10  N   -0.383284
    11  C    0.138932
 Electronic spatial extent (au):  <R**2>=           2185.3775
 Charge=             -0.0000 electrons
 Dipole moment (field-independent basis, Debye):
    X=             -0.8889    Y=             -0.2542    Z=              0.0321  Tot=              0.9251
 Quadrupole moment (field-independent basis, Debye-Ang):
   XX=            -62.1393   YY=            -68.2739   ZZ=            -65.5060
   XY=             -5.7019   XZ=              0.2070   YZ=             -0.5305
 Traceless Quadrupole moment (field-independent basis, Debye-Ang):
   XX=              3.1671   YY=             -2.9675   ZZ=             -0.1996
   XY=             -5.7019   XZ=              0.2070   YZ=             -0.5305
 Octapole moment (field-independent basis, Debye-Ang**2):
  XXX=             19.0686  YYY=             -0.9977  ZZZ=              0.1870  XYY=             -5.7646
  XXY=            -25.9148  XXZ=              1.0007  XZZ=             -2.6173  YZZ=             -0.0490
  YYZ=              0.2495  XYZ=             -1.2703
 Hexadecapole moment (field-independent basis, Debye-Ang**3):
 XXXX=          -2305.9529 YYYY=           -413.1350 ZZZZ=           -144.2358 XXXY=            -85.4482
 XXXZ=             -0.4657 YYYX=            -22.5975 YYYZ=             -1.7538 ZZZX=             -0.6774
 ZZZY=              0.8735 XXYY=           -485.3380 XXZZ=           -437.0892 YYZZ=            -95.2531
 XXYZ=             -4.2898 YYXZ=             -0.9146 ZZXY=             -0.0453
 N-N= 5.773640525533D+02 E-N=-2.219936498282D+03  KE= 4.550951019568D+02
 Calling FoFJK, ICntrl=      2127 FMM=F ISym2X=0 I1Cent= 0 IOpClX= 0 NMat=1 NMatS=1 NMatT=0.
 ***** Axes restored to original set *****
 -------------------------------------------------------------------
 Center     Atomic                   Forces (Hartrees/Bohr)
 Number     Number              X              Y              Z
 -------------------------------------------------------------------
      1        6           0.001461206    0.000272890    0.000878270
      2        6           0.002535642   -0.000739979    0.017793096
      3        6          -0.002755466    0.011018613   -0.014229492
      4        6           0.030010158    0.006749538    0.018663814
      5        6          -0.002322632   -0.010828723   -0.014182894
      6        6          -0.017237401   -0.022357664   -0.013362820
      7        7           0.009126552    0.010930765    0.005114382
      8        6          -0.023607033   -0.004954004   -0.003615667
      9        6          -0.000013628    0.017435044    0.006452379
     10        7          -0.014215055   -0.011793439   -0.005758581
     11        6           0.011535832    0.006460807    0.004070927
     12        1          -0.000690514    0.000899977   -0.000622530
     13        1           0.000411639    0.000019042   -0.001390322
     14        1          -0.000452198   -0.000865517   -0.000702016
     15        1          -0.002749558    0.000030645   -0.001251125
     16        1          -0.000318897    0.003347758    0.001176727
     17        1           0.001602764   -0.003656241   -0.001788313
     18        1           0.003202734   -0.001255740    0.004692374
     19        1           0.001269831    0.003914320   -0.002407865
     20        1           0.000876119   -0.002546027    0.000849422
     21        1           0.001963849   -0.002180410   -0.000573207
     22        1           0.002794528   -0.001081577   -0.000174010
     23        1          -0.002428472    0.001179922    0.000367450
 -------------------------------------------------------------------
 Cartesian Forces:  Max     0.030010158 RMS     0.008616778

 GradGradGradGradGradGradGradGradGradGradGradGradGradGradGradGradGradGrad
 Berny optimization.
 FormGI is forming the generalized inverse of G from B-inverse, IUseBI=4.
 Internal  Forces:  Max     0.032662843 RMS     0.004461209
 Search for a local minimum.
 Step number   1 out of a maximum of  138
 All quantities printed in internal units (Hartrees-Bohrs-Radians)
 Mixed Optimization -- RFO/linear search
 Second derivative matrix not updated -- first step.
 ITU=  0
     Eigenvalues ---    0.00230   0.00349   0.00489   0.01267   0.02177
     Eigenvalues ---    0.02194   0.02236   0.02283   0.02321   0.02331
     Eigenvalues ---    0.02343   0.02559   0.02796   0.03435   0.04198
     Eigenvalues ---    0.04716   0.04723   0.05035   0.05513   0.05628
     Eigenvalues ---    0.05704   0.05981   0.06282   0.06658   0.07444
     Eigenvalues ---    0.07905   0.09802   0.10452   0.16000   0.16000
     Eigenvalues ---    0.16000   0.16000   0.16000   0.16000   0.18937
     Eigenvalues ---    0.22289   0.23240   0.23899   0.24512   0.24998
     Eigenvalues ---    0.25133   0.26313   0.26495   0.27585   0.30275
     Eigenvalues ---    0.33506   0.33986   0.34013   0.34052   0.34267
     Eigenvalues ---    0.34268   0.34280   0.34349   0.34361   0.35431
     Eigenvalues ---    0.35549   0.35554   0.43271   0.47765   0.49981
     Eigenvalues ---    0.52370   0.54055   0.54577
 RFO step:  Lambda=-1.11940707D-02 EMin= 2.30000000D-03
 Linear search not attempted -- first point.
 Iteration  1 RMS(Cart)=  0.06210539 RMS(Int)=  0.00097540
 Iteration  2 RMS(Cart)=  0.00167271 RMS(Int)=  0.00035376
 Iteration  3 RMS(Cart)=  0.00000081 RMS(Int)=  0.00035376
 Variable       Old X    -DE/DX   Delta X   Delta X   Delta X     New X
                                 (Linear)    (Quad)   (Total)
    R1        2.87418   0.00065   0.00000   0.00206   0.00206   2.87624
    R2        2.06880   0.00102   0.00000   0.00289   0.00289   2.07169
    R3        2.06860   0.00145   0.00000   0.00409   0.00409   2.07269
    R4        2.06882   0.00089   0.00000   0.00251   0.00251   2.07134
    R5        2.92299   0.00476   0.00000   0.02034   0.02038   2.94337
    R6        2.92250   0.00491   0.00000   0.02052   0.02051   2.94301
    R7        2.07353  -0.00018   0.00000  -0.00051  -0.00051   2.07302
    R8        2.93870  -0.00021   0.00000  -0.00458  -0.00457   2.93414
    R9        2.06746   0.00222   0.00000   0.00625   0.00625   2.07371
   R10        2.07242  -0.00197   0.00000  -0.00559  -0.00559   2.06683
   R11        2.94028  -0.00102   0.00000  -0.00752  -0.00756   2.93272
   R12        2.95982  -0.03266   0.00000  -0.11907  -0.11907   2.84076
   R13        2.08172  -0.00537   0.00000  -0.01550  -0.01550   2.06623
   R14        2.07307  -0.00278   0.00000  -0.00792  -0.00792   2.06515
   R15        2.06726   0.00130   0.00000   0.00368   0.00368   2.07093
   R16        2.57068  -0.01399   0.00000  -0.02643  -0.02641   2.54427
   R17        2.63743   0.00002   0.00000  -0.00066  -0.00062   2.63681
   R18        2.55767  -0.01652   0.00000  -0.02969  -0.02971   2.52796
   R19        2.61159   0.00961   0.00000   0.01994   0.01989   2.63149
   R20        2.04792   0.00288   0.00000   0.00784   0.00784   2.05577
   R21        2.54866  -0.00954   0.00000  -0.01640  -0.01642   2.53223
   R22        2.04785   0.00283   0.00000   0.00770   0.00770   2.05555
   R23        2.56239  -0.01664   0.00000  -0.03045  -0.03043   2.53196
   R24        2.04980   0.00214   0.00000   0.00585   0.00585   2.05565
    A1        1.92753   0.00087   0.00000   0.00618   0.00616   1.93369
    A2        1.95596  -0.00038   0.00000  -0.00402  -0.00401   1.95195
    A3        1.92715   0.00068   0.00000   0.00464   0.00462   1.93178
    A4        1.88435  -0.00047   0.00000  -0.00412  -0.00411   1.88024
    A5        1.88225  -0.00028   0.00000   0.00190   0.00186   1.88411
    A6        1.88427  -0.00046   0.00000  -0.00478  -0.00477   1.87949
    A7        2.03060  -0.00250   0.00000  -0.02994  -0.02938   2.00122
    A8        2.02865  -0.00224   0.00000  -0.02773  -0.02714   2.00151
    A9        1.91411   0.00022   0.00000  -0.00687  -0.00679   1.90732
   A10        1.52465   0.00155   0.00000   0.02304   0.02148   1.54613
   A11        1.97002   0.00168   0.00000   0.02435   0.02389   1.99390
   A12        1.97134   0.00156   0.00000   0.02401   0.02354   1.99488
   A13        1.54632  -0.00189   0.00000  -0.00042  -0.00247   1.54385
   A14        2.02646   0.00283   0.00000   0.02896   0.02903   2.05549
   A15        1.96900  -0.00138   0.00000  -0.02166  -0.02209   1.94690
   A16        2.01286   0.00311   0.00000   0.03673   0.03670   2.04956
   A17        2.00069  -0.00279   0.00000  -0.04771  -0.04751   1.95318
   A18        1.89326  -0.00014   0.00000   0.00193   0.00232   1.89558
   A19        1.51380   0.00505   0.00000   0.03989   0.03884   1.55263
   A20        2.09022  -0.00051   0.00000   0.01016   0.01039   2.10062
   A21        1.92605  -0.00144   0.00000  -0.00469  -0.00445   1.92160
   A22        2.05984  -0.00142   0.00000  -0.00016  -0.00032   2.05952
   A23        1.93157  -0.00187   0.00000  -0.01756  -0.01774   1.91384
   A24        1.91163   0.00055   0.00000  -0.01904  -0.01939   1.89224
   A25        1.54595  -0.00166   0.00000   0.00051  -0.00152   1.54444
   A26        1.97573  -0.00129   0.00000  -0.01882  -0.01920   1.95653
   A27        2.02713   0.00308   0.00000   0.03413   0.03431   2.06144
   A28        1.99183  -0.00271   0.00000  -0.04794  -0.04773   1.94410
   A29        2.01447   0.00244   0.00000   0.02838   0.02830   2.04277
   A30        1.89336  -0.00011   0.00000   0.00170   0.00189   1.89525
   A31        1.99391   0.00574   0.00000   0.02304   0.02292   2.01682
   A32        2.19953  -0.01260   0.00000  -0.04720  -0.04732   2.15222
   A33        2.08966   0.00687   0.00000   0.02446   0.02445   2.11411
   A34        2.03598  -0.00221   0.00000  -0.00915  -0.00914   2.02684
   A35        2.13769  -0.00121   0.00000  -0.00315  -0.00321   2.13448
   A36        2.02410   0.00144   0.00000   0.00645   0.00648   2.03058
   A37        2.12140  -0.00023   0.00000  -0.00330  -0.00327   2.11813
   A38        2.13244  -0.00122   0.00000  -0.00227  -0.00233   2.13011
   A39        2.12290  -0.00042   0.00000  -0.00491  -0.00489   2.11801
   A40        2.02784   0.00165   0.00000   0.00719   0.00721   2.03506
   A41        2.00810   0.00175   0.00000   0.00858   0.00859   2.01669
   A42        2.16247  -0.00398   0.00000  -0.01840  -0.01833   2.14414
   A43        2.11316   0.00027   0.00000  -0.00087  -0.00090   2.11225
   A44        2.00756   0.00371   0.00000   0.01927   0.01923   2.02679
    D1       -1.21397  -0.00015   0.00000   0.00066   0.00047  -1.21349
    D2       -2.97250   0.00072   0.00000   0.00592   0.00611  -2.96639
    D3        1.04828   0.00025   0.00000   0.00255   0.00258   1.05085
    D4        0.88770  -0.00040   0.00000  -0.00301  -0.00321   0.88449
    D5       -0.87083   0.00047   0.00000   0.00225   0.00243  -0.86841
    D6       -3.13324   0.00000   0.00000  -0.00112  -0.00111  -3.13435
    D7        2.98899  -0.00078   0.00000  -0.00857  -0.00878   2.98021
    D8        1.23046   0.00009   0.00000  -0.00331  -0.00314   1.22731
    D9       -1.03196  -0.00038   0.00000  -0.00668  -0.00668  -1.03863
   D10       -1.67437  -0.00193   0.00000  -0.05430  -0.05420  -1.72857
   D11        0.37957   0.00123   0.00000  -0.00612  -0.00605   0.37352
   D12        2.58021   0.00225   0.00000   0.00226   0.00225   2.58245
   D13        0.38675  -0.00417   0.00000  -0.07978  -0.07973   0.30702
   D14        2.44068  -0.00100   0.00000  -0.03160  -0.03158   2.40911
   D15       -1.64186   0.00001   0.00000  -0.02322  -0.02328  -1.66515
   D16        2.37361  -0.00155   0.00000  -0.04005  -0.03985   2.33376
   D17       -1.85564   0.00161   0.00000   0.00813   0.00830  -1.84734
   D18        0.34500   0.00263   0.00000   0.01651   0.01660   0.36160
   D19        1.67639   0.00157   0.00000   0.05180   0.05177   1.72815
   D20       -2.58691  -0.00242   0.00000  -0.00419  -0.00423  -2.59114
   D21       -0.37933  -0.00101   0.00000   0.01137   0.01130  -0.36803
   D22       -0.38653   0.00405   0.00000   0.07934   0.07937  -0.30717
   D23        1.63336   0.00006   0.00000   0.02334   0.02337   1.65672
   D24       -2.44225   0.00147   0.00000   0.03890   0.03890  -2.40335
   D25       -2.37213   0.00132   0.00000   0.03923   0.03912  -2.33300
   D26       -0.35224  -0.00267   0.00000  -0.01676  -0.01688  -0.36911
   D27        1.85534  -0.00126   0.00000  -0.00120  -0.00135   1.85400
   D28       -0.38451   0.00341   0.00000   0.07589   0.07643  -0.30809
   D29       -2.48981   0.00205   0.00000   0.04815   0.04814  -2.44167
   D30        1.55022   0.00319   0.00000   0.07170   0.07175   1.62196
   D31       -2.45075   0.00049   0.00000   0.03502   0.03533  -2.41542
   D32        1.72714  -0.00087   0.00000   0.00729   0.00704   1.73418
   D33       -0.51602   0.00027   0.00000   0.03083   0.03065  -0.48537
   D34        1.61475   0.00042   0.00000   0.04281   0.04338   1.65813
   D35       -0.49054  -0.00094   0.00000   0.01508   0.01509  -0.47545
   D36       -2.73371   0.00020   0.00000   0.03863   0.03870  -2.69500
   D37        0.38458  -0.00343   0.00000  -0.07594  -0.07646   0.30812
   D38       -1.62039  -0.00070   0.00000  -0.04664  -0.04714  -1.66753
   D39        2.45175  -0.00026   0.00000  -0.03058  -0.03094   2.42081
   D40        2.51734  -0.00141   0.00000  -0.04050  -0.04063   2.47671
   D41        0.51236   0.00131   0.00000  -0.01120  -0.01130   0.50106
   D42       -1.69868   0.00175   0.00000   0.00486   0.00490  -1.69379
   D43       -1.54468  -0.00367   0.00000  -0.08472  -0.08464  -1.62932
   D44        2.73353  -0.00094   0.00000  -0.05542  -0.05532   2.67822
   D45        0.52248  -0.00050   0.00000  -0.03936  -0.03911   0.48337
   D46        2.77783   0.00220   0.00000   0.01536   0.01521   2.79304
   D47       -0.37845   0.00280   0.00000   0.03975   0.03940  -0.33904
   D48        0.97500  -0.00320   0.00000  -0.04485  -0.04447   0.93053
   D49       -2.18127  -0.00259   0.00000  -0.02046  -0.02028  -2.20155
   D50       -1.25567   0.00017   0.00000  -0.00166  -0.00158  -1.25725
   D51        1.87125   0.00077   0.00000   0.02273   0.02261   1.89385
   D52        3.13579   0.00037   0.00000   0.01752   0.01820  -3.12919
   D53        0.00787  -0.00002   0.00000  -0.00454  -0.00475   0.00312
   D54       -3.13665  -0.00045   0.00000  -0.01651  -0.01629   3.13025
   D55        0.00470  -0.00032   0.00000  -0.01316  -0.01302  -0.00832
   D56       -0.01047   0.00017   0.00000   0.00905   0.00915  -0.00132
   D57        3.13088   0.00030   0.00000   0.01240   0.01242  -3.13989
   D58       -0.00133  -0.00011   0.00000  -0.00141  -0.00126  -0.00260
   D59        3.14087  -0.00003   0.00000   0.00052   0.00060   3.14146
   D60       -0.00363   0.00012   0.00000   0.00385   0.00380   0.00017
   D61        3.13935   0.00010   0.00000   0.00270   0.00266  -3.14118
   D62        3.13733   0.00003   0.00000   0.00182   0.00185   3.13918
   D63       -0.00288   0.00001   0.00000   0.00067   0.00071  -0.00217
   D64        0.00155   0.00002   0.00000   0.00015   0.00016   0.00171
   D65       -3.14135   0.00003   0.00000   0.00123   0.00124  -3.14011
   D66        0.00538  -0.00021   0.00000  -0.00665  -0.00654  -0.00116
   D67       -3.13598  -0.00033   0.00000  -0.00981  -0.00965   3.13755
         Item               Value     Threshold  Converged?
 Maximum Force            0.032663     0.000450     NO 
 RMS     Force            0.004461     0.000300     NO 
 Maximum Displacement     0.201033     0.001800     NO 
 RMS     Displacement     0.062681     0.001200     NO 
 Predicted change in Energy=-6.249773D-03
 GradGradGradGradGradGradGradGradGradGradGradGradGradGradGradGradGradGrad

                          Input orientation:                          
 ---------------------------------------------------------------------
 Center     Atomic      Atomic             Coordinates (Angstroms)
 Number     Number       Type             X           Y           Z
 ---------------------------------------------------------------------
      1          6           0       -1.733449    0.018972   -0.385911
      2          6           0       -0.539787   -0.002290    0.558190
      3          6           0        0.514225    1.114672    0.298461
      4          6           0        1.366936    0.072067   -0.473982
      5          6           0        0.549252   -1.058329    0.205777
      6          6           0        2.862319    0.050892   -0.321726
      7          7           0        3.465474   -1.100914   -0.671384
      8          6           0        4.794838   -1.137420   -0.526480
      9          6           0        5.520990   -0.050829   -0.045703
     10          7           0        4.930837    1.100788    0.302285
     11          6           0        3.599148    1.134190    0.158400
     12          1           0       -2.368314    0.891213   -0.190980
     13          1           0       -1.421850    0.060789   -1.436707
     14          1           0       -2.346045   -0.880601   -0.255767
     15          1           0       -0.897949   -0.051575    1.593899
     16          1           0        0.188464    2.007514   -0.250095
     17          1           0        0.999582    1.432461    1.225640
     18          1           0        1.128774    0.107889   -1.540528
     19          1           0        1.057303   -1.437779    1.095822
     20          1           0        0.259545   -1.909541   -0.420710
     21          1           0        5.285778   -2.066531   -0.807874
     22          1           0        6.602031   -0.097223    0.065656
     23          1           0        3.109868    2.063465    0.441898
 ---------------------------------------------------------------------
                    Distance matrix (angstroms):
                    1          2          3          4          5
     1  C    0.000000
     2  C    1.522041   0.000000
     3  C    2.592482   1.557563   0.000000
     4  C    3.102090   2.169447   1.552679   0.000000
     5  C    2.592565   1.557376   2.175259   1.551926   0.000000
     6  C    4.596327   3.514457   2.651378   1.503263   2.618952
     7  N    5.325827   4.331390   3.815664   2.412200   3.045583
     8  C    6.631405   5.560868   4.906740   3.635399   4.308997
     9  C    7.262747   6.090981   5.152139   4.177881   5.079023
    10  N    6.786505   5.586591   4.416636   3.789756   4.885631
    11  C    5.475086   4.310707   3.088162   2.551623   3.756494
    12  H    1.096292   2.168667   2.932323   3.834473   3.531334
    13  H    1.096821   2.182116   2.805329   2.950305   2.799183
    14  H    1.096104   2.167147   3.531208   3.839456   2.937236
    15  H    2.150043   1.096997   2.243330   3.069386   2.243843
    16  H    2.768843   2.285385   1.097361   2.277033   3.120478
    17  H    3.473399   2.207635   1.093719   2.207790   2.728910
    18  H    3.087615   2.683440   2.184757   1.093400   2.178415
    19  H    3.479361   2.213679   2.728686   2.199953   1.092831
    20  H    2.773517   2.287965   3.118964   2.270666   1.095891
    21  H    7.334638   6.329646   5.840526   4.476874   4.947589
    22  H    8.348510   7.159410   6.211623   5.265556   6.130211
    23  H    5.321929   4.195336   2.767335   2.800413   4.044515
                    6          7          8          9         10
     6  C    0.000000
     7  N    1.346370   0.000000
     8  C    2.277858   1.337737   0.000000
     9  C    2.674895   2.391506   1.392524   0.000000
    10  N    2.402174   2.818300   2.390591   1.339999   0.000000
    11  C    1.395339   2.387907   2.656868   2.267026   1.339857
    12  H    5.299317   6.183238   7.452427   7.946676   7.318801
    13  H    4.426894   5.081457   6.396205   7.081693   6.668008
    14  H    5.291417   5.830525   7.150626   7.913462   7.562430
    15  H    4.221344   5.027135   6.171134   6.625034   6.080375
    16  H    3.314062   4.536364   5.584415   5.719649   4.859772
    17  H    2.787986   4.012145   4.906953   4.925403   4.051835
    18  H    2.119883   2.770700   4.002389   4.642332   4.340218
    19  H    2.735629   3.005957   4.085492   4.811570   4.698754
    20  H    3.259989   3.315824   4.601765   5.592695   5.604085
    21  H    3.254684   2.065079   1.087865   2.167783   3.374959
    22  H    3.762638   3.374702   2.167620   1.087751   2.069809
    23  H    2.166761   3.373299   3.744669   3.243687   2.064502
                   11         12         13         14         15
    11  C    0.000000
    12  H    5.982616   0.000000
    13  H    5.376521   1.771224   0.000000
    14  H    6.290964   1.773138   1.770585   0.000000
    15  H    4.867297   2.497321   3.077609   2.491091   0.000000
    16  H    3.544338   2.790472   2.791218   3.842522   2.969925
    17  H    2.825900   3.693573   3.851352   4.328746   2.436924
    18  H    3.168974   3.829426   2.553171   3.834331   3.735997
    19  H    3.735607   4.337617   3.847806   3.704055   2.447990
    20  H    4.555503   3.847420   2.782363   2.806247   2.974976
    21  H    3.744733   8.228847   7.064927   7.743124   6.933040
    22  H    3.246889   9.028286   8.164847   8.988050   7.654235
    23  H    1.087804   5.637835   5.298711   6.238689   4.675799
                   16         17         18         19         20
    16  H    0.000000
    17  H    1.779436   0.000000
    18  H    2.481527   3.069669   0.000000
    19  H    3.799529   2.873754   3.056884   0.000000
    20  H    3.921413   3.798302   2.465679   1.777314   0.000000
    21  H    6.549166   5.894879   4.748217   4.679677   5.043565
    22  H    6.757474   5.922240   5.707752   5.796752   6.614240
    23  H    3.002763   2.337889   3.417458   4.110881   4.965199
                   21         22         23
    21  H    0.000000
    22  H    2.524629   0.000000
    23  H    4.832534   4.123752   0.000000
 Stoichiometry    C9H12N2
 Framework group  C1[X(C9H12N2)]
 Deg. of freedom    63
 Full point group                 C1      NOp   1
 Largest Abelian subgroup         C1      NOp   1
 Largest concise Abelian subgroup C1      NOp   1
                         Standard orientation:                         
 ---------------------------------------------------------------------
 Center     Atomic      Atomic             Coordinates (Angstroms)
 Number     Number       Type             X           Y           Z
 ---------------------------------------------------------------------
      1          6           0       -3.873436   -0.158011   -0.381150
      2          6           0       -2.704987    0.111689    0.556185
      3          6           0       -1.659212    1.131010    0.014574
      4          6           0       -0.772769   -0.069765   -0.413408
      5          6           0       -1.593254   -0.978817    0.539957
      6          6           0        0.718213   -0.017177   -0.228993
      7          7           0        1.345456   -1.208508   -0.226072
      8          6           0        2.670888   -1.176027   -0.047978
      9          6           0        3.369757    0.016359    0.122078
     10          7           0        2.755556    1.207299    0.117890
     11          6           0        1.427815    1.172081   -0.058400
     12          1           0       -4.524618    0.720897   -0.454222
     13          1           0       -3.534728   -0.407901   -1.393991
     14          1           0       -4.477411   -0.996493   -0.015630
     15          1           0       -3.089742    0.349230    1.555655
     16          1           0       -1.982030    1.826265   -0.770672
     17          1           0       -1.202758    1.706968    0.824601
     18          1           0       -0.983087   -0.340866   -1.451577
     19          1           0       -1.103990   -1.081684    1.511717
     20          1           0       -1.855101   -1.977753    0.173159
     21          1           0        3.181239   -2.136747   -0.044893
     22          1           0        4.447990    0.024921    0.265409
     23          1           0        0.919064    2.133584   -0.059477
 ---------------------------------------------------------------------
 Rotational constants (GHZ):           3.4371867           0.5947596           0.5317802
 Standard basis: 6-31G(d) (6D, 7F)
 There are   189 symmetry adapted cartesian basis functions of A   symmetry.
 There are   189 symmetry adapted basis functions of A   symmetry.
   189 basis functions,   356 primitive gaussians,   189 cartesian basis functions
    40 alpha electrons       40 beta electrons
       nuclear repulsion energy       582.3950124794 Hartrees.
 NAtoms=   23 NActive=   23 NUniq=   23 SFac= 1.00D+00 NAtFMM=   60 NAOKFM=F Big=F
 Integral buffers will be    131072 words long.
 Raffenetti 2 integral format.
 Two-electron integral symmetry is turned on.
 Nuclear repulsion after empirical dispersion term =      582.3541653718 Hartrees.
 One-electron integrals computed using PRISM.
 NBasis=   189 RedAO= T EigKep=  1.24D-03  NBF=   189
 NBsUse=   189 1.00D-06 EigRej= -1.00D+00 NBFU=   189
 Initial guess from the checkpoint file:  "JID_1022.chk"
 B after Tr=    -0.000000    0.000000    0.000000
         Rot=    0.999992   -0.003460   -0.000902   -0.001537 Ang=  -0.45 deg.
 ExpMin= 1.61D-01 ExpMax= 4.17D+03 ExpMxC= 6.27D+02 IAcc=2 IRadAn=         4 AccDes= 0.00D+00
 Harris functional with IExCor=  402 and IRadAn=       4 diagonalized for initial guess.
 HarFok:  IExCor=  402 AccDes= 0.00D+00 IRadAn=         4 IDoV= 1 UseB2=F ITyADJ=14
 ICtDFT=  3500011 ScaDFX=  1.000000  1.000000  1.000000  1.000000
 FoFCou: FMM=F IPFlag=           0 FMFlag=      100000 FMFlg1=           0
         NFxFlg=           0 DoJE=T BraDBF=F KetDBF=T FulRan=T
         wScrn=  0.000000 ICntrl=       500 IOpCl=  0 I1Cent=   200000004 NGrid=           0
         NMat0=    1 NMatS0=      1 NMatT0=    0 NMatD0=    1 NMtDS0=    0 NMtDT0=    0
 Petite list used in FoFCou.
 Keep R1 ints in memory in canonical form, NReq=165269228.
 Requested convergence on RMS density matrix=1.00D-08 within  32 cycles.
 Requested convergence on MAX density matrix=1.00D-06.
 Requested convergence on             energy=1.00D-06.
 No special actions if energy rises.
 Integral accuracy reduced to 1.0D-05 until final iterations.
 Initial convergence to 1.0D-05 achieved.  Increase integral accuracy.
 SCF Done:  E(RB3LYP) =  -459.693188963     A.U. after   12 cycles
            NFock= 12  Conv=0.75D-08     -V/T= 2.0097
 QCSCF skips out because SCF is already converged.
 Calling FoFJK, ICntrl=      2127 FMM=F ISym2X=0 I1Cent= 0 IOpClX= 0 NMat=1 NMatS=1 NMatT=0.
 ***** Axes restored to original set *****
 -------------------------------------------------------------------
 Center     Atomic                   Forces (Hartrees/Bohr)
 Number     Number              X              Y              Z
 -------------------------------------------------------------------
      1        6          -0.000708713    0.000054546   -0.000333659
      2        6           0.000197310   -0.000456991    0.003695403
      3        6          -0.000763316   -0.000669532   -0.002163848
      4        6           0.003323080    0.003974217    0.002126492
      5        6          -0.001610588    0.000003666   -0.001409640
      6        6          -0.007000652   -0.006965268   -0.002577018
      7        7           0.004463640    0.003490073    0.001898689
      8        6          -0.004034962   -0.002928973   -0.001965179
      9        6           0.002494289    0.004908709    0.002055697
     10        7          -0.001654148   -0.003950311   -0.001848923
     11        6           0.004350629    0.004341983    0.002277681
     12        1          -0.000283654    0.000118711   -0.000369591
     13        1           0.000357799    0.000024431   -0.000161595
     14        1          -0.000272179   -0.000139125   -0.000429148
     15        1           0.000063001    0.000139879   -0.000725738
     16        1          -0.000228206   -0.001466375    0.000677487
     17        1           0.000337150   -0.000022425    0.000664819
     18        1          -0.000329375   -0.000256948   -0.002100034
     19        1           0.000758297   -0.000286124    0.000509425
     20        1          -0.000287809    0.001436618    0.000675818
     21        1           0.001281954    0.000154850    0.000331815
     22        1           0.000085466   -0.000864909   -0.000225701
     23        1          -0.000539011   -0.000640703   -0.000603251
 -------------------------------------------------------------------
 Cartesian Forces:  Max     0.007000652 RMS     0.002220543

 GradGradGradGradGradGradGradGradGradGradGradGradGradGradGradGradGradGrad
 Berny optimization.
 Using GEDIIS/GDIIS optimizer.
 FormGI is forming the generalized inverse of G from B-inverse, IUseBI=4.
 Internal  Forces:  Max     0.004402207 RMS     0.000898045
 Search for a local minimum.
 Step number   2 out of a maximum of  138
 All quantities printed in internal units (Hartrees-Bohrs-Radians)
 Mixed Optimization -- En-DIIS/RFO-DIIS
 Update second derivatives using D2CorX and points    1    2
 DE= -5.88D-03 DEPred=-6.25D-03 R= 9.41D-01
 TightC=F SS=  1.41D+00  RLast= 3.35D-01 DXNew= 5.0454D-01 1.0043D+00
 Trust test= 9.41D-01 RLast= 3.35D-01 DXMaxT set to 5.05D-01
 ITU=  1  0
 Use linear search instead of GDIIS.
     Eigenvalues ---    0.00230   0.00332   0.00489   0.01290   0.02177
     Eigenvalues ---    0.02195   0.02259   0.02284   0.02321   0.02331
     Eigenvalues ---    0.02343   0.02459   0.02919   0.03547   0.04296
     Eigenvalues ---    0.04707   0.04771   0.04904   0.05529   0.05586
     Eigenvalues ---    0.05654   0.06052   0.06321   0.06616   0.07345
     Eigenvalues ---    0.07852   0.10061   0.10830   0.15785   0.16000
     Eigenvalues ---    0.16000   0.16000   0.16000   0.16007   0.18975
     Eigenvalues ---    0.22250   0.22491   0.23592   0.24029   0.24986
     Eigenvalues ---    0.25418   0.26868   0.27324   0.27689   0.30330
     Eigenvalues ---    0.33700   0.33984   0.34035   0.34115   0.34259
     Eigenvalues ---    0.34267   0.34276   0.34355   0.34674   0.35466
     Eigenvalues ---    0.35534   0.35560   0.43671   0.47136   0.50051
     Eigenvalues ---    0.52341   0.53160   0.54420
 RFO step:  Lambda=-5.76918545D-04 EMin= 2.29988915D-03
 Quartic linear search produced a step of  0.02689.
 Iteration  1 RMS(Cart)=  0.03402798 RMS(Int)=  0.00052125
 Iteration  2 RMS(Cart)=  0.00073260 RMS(Int)=  0.00003029
 Iteration  3 RMS(Cart)=  0.00000044 RMS(Int)=  0.00003029
 Variable       Old X    -DE/DX   Delta X   Delta X   Delta X     New X
                                 (Linear)    (Quad)   (Total)
    R1        2.87624   0.00151   0.00006   0.00517   0.00523   2.88147
    R2        2.07169   0.00019   0.00008   0.00064   0.00072   2.07241
    R3        2.07269   0.00026   0.00011   0.00086   0.00097   2.07366
    R4        2.07134   0.00022   0.00007   0.00070   0.00077   2.07210
    R5        2.94337  -0.00031   0.00055  -0.00035   0.00022   2.94359
    R6        2.94301  -0.00065   0.00055  -0.00148  -0.00091   2.94210
    R7        2.07302  -0.00071  -0.00001  -0.00216  -0.00217   2.07085
    R8        2.93414   0.00005  -0.00012  -0.00044  -0.00059   2.93355
    R9        2.07371  -0.00146   0.00017  -0.00423  -0.00406   2.06965
   R10        2.06683   0.00071  -0.00015   0.00200   0.00185   2.06868
   R11        2.93272   0.00101  -0.00020   0.00332   0.00309   2.93581
   R12        2.84076  -0.00058  -0.00320  -0.00487  -0.00807   2.83269
   R13        2.06623   0.00211  -0.00042   0.00612   0.00570   2.07193
   R14        2.06515   0.00087  -0.00021   0.00244   0.00222   2.06737
   R15        2.07093  -0.00143   0.00010  -0.00417  -0.00408   2.06686
   R16        2.54427  -0.00033  -0.00071  -0.00114  -0.00184   2.54243
   R17        2.63681   0.00393  -0.00002   0.00883   0.00882   2.64563
   R18        2.52796  -0.00107  -0.00080  -0.00271  -0.00351   2.52445
   R19        2.63149   0.00208   0.00054   0.00469   0.00521   2.63670
   R20        2.05577   0.00036   0.00021   0.00122   0.00143   2.05719
   R21        2.53223  -0.00238  -0.00044  -0.00489  -0.00534   2.52689
   R22        2.05555   0.00010   0.00021   0.00046   0.00066   2.05622
   R23        2.53196  -0.00086  -0.00082  -0.00232  -0.00313   2.52883
   R24        2.05565  -0.00046   0.00016  -0.00121  -0.00105   2.05460
    A1        1.93369   0.00062   0.00017   0.00477   0.00492   1.93861
    A2        1.95195  -0.00073  -0.00011  -0.00612  -0.00622   1.94572
    A3        1.93178   0.00064   0.00012   0.00490   0.00501   1.93679
    A4        1.88024  -0.00009  -0.00011  -0.00200  -0.00211   1.87814
    A5        1.88411  -0.00036   0.00005   0.00048   0.00049   1.88460
    A6        1.87949  -0.00011  -0.00013  -0.00216  -0.00228   1.87721
    A7        2.00122  -0.00023  -0.00079  -0.00759  -0.00842   1.99279
    A8        2.00151  -0.00016  -0.00073  -0.00715  -0.00794   1.99357
    A9        1.90732   0.00014  -0.00018   0.00486   0.00472   1.91204
   A10        1.54613  -0.00051   0.00058  -0.00420  -0.00372   1.54241
   A11        1.99390   0.00034   0.00064   0.00553   0.00618   2.00008
   A12        1.99488   0.00033   0.00063   0.00677   0.00741   2.00229
   A13        1.54385   0.00103  -0.00007   0.00741   0.00729   1.55114
   A14        2.05549  -0.00058   0.00078  -0.00686  -0.00611   2.04939
   A15        1.94690  -0.00037  -0.00059  -0.00230  -0.00289   1.94401
   A16        2.04956  -0.00026   0.00099   0.00212   0.00314   2.05270
   A17        1.95318  -0.00023  -0.00128  -0.00199  -0.00326   1.94992
   A18        1.89558   0.00041   0.00006   0.00184   0.00189   1.89747
   A19        1.55263  -0.00119   0.00104  -0.00580  -0.00481   1.54782
   A20        2.10062   0.00099   0.00028   0.00621   0.00649   2.10711
   A21        1.92160   0.00007  -0.00012   0.00396   0.00383   1.92543
   A22        2.05952   0.00055  -0.00001  -0.00014  -0.00014   2.05938
   A23        1.91384  -0.00007  -0.00048  -0.00441  -0.00487   1.90896
   A24        1.89224  -0.00043  -0.00052  -0.00080  -0.00137   1.89087
   A25        1.54444   0.00083  -0.00004   0.00655   0.00645   1.55089
   A26        1.95653   0.00000  -0.00052   0.00325   0.00275   1.95927
   A27        2.06144  -0.00061   0.00092  -0.00751  -0.00659   2.05485
   A28        1.94410  -0.00035  -0.00128  -0.00360  -0.00490   1.93920
   A29        2.04277  -0.00019   0.00076   0.00027   0.00106   2.04383
   A30        1.89525   0.00033   0.00005   0.00151   0.00156   1.89681
   A31        2.01682   0.00440   0.00062   0.01828   0.01883   2.03565
   A32        2.15222  -0.00124  -0.00127  -0.00636  -0.00770   2.14452
   A33        2.11411  -0.00316   0.00066  -0.01177  -0.01113   2.10298
   A34        2.02684   0.00271  -0.00025   0.01147   0.01125   2.03808
   A35        2.13448  -0.00034  -0.00009  -0.00180  -0.00189   2.13259
   A36        2.03058   0.00149   0.00017   0.00941   0.00958   2.04016
   A37        2.11813  -0.00114  -0.00009  -0.00760  -0.00769   2.11044
   A38        2.13011  -0.00145  -0.00006  -0.00720  -0.00727   2.12284
   A39        2.11801  -0.00019  -0.00013  -0.00238  -0.00250   2.11551
   A40        2.03506   0.00164   0.00019   0.00957   0.00978   2.04484
   A41        2.01669   0.00227   0.00023   0.00934   0.00958   2.02627
   A42        2.14414  -0.00002  -0.00049  -0.00007  -0.00056   2.14358
   A43        2.11225  -0.00089  -0.00002  -0.00593  -0.00599   2.10627
   A44        2.02679   0.00091   0.00052   0.00602   0.00650   2.03329
    D1       -1.21349  -0.00024   0.00001  -0.00580  -0.00576  -1.21925
    D2       -2.96639   0.00060   0.00016   0.00751   0.00766  -2.95872
    D3        1.05085   0.00015   0.00007  -0.00018  -0.00010   1.05075
    D4        0.88449  -0.00043  -0.00009  -0.00920  -0.00927   0.87522
    D5       -0.86841   0.00042   0.00007   0.00411   0.00416  -0.86425
    D6       -3.13435  -0.00003  -0.00003  -0.00358  -0.00361  -3.13796
    D7        2.98021  -0.00062  -0.00024  -0.01269  -0.01292   2.96728
    D8        1.22731   0.00023  -0.00008   0.00061   0.00050   1.22781
    D9       -1.03863  -0.00022  -0.00018  -0.00708  -0.00727  -1.04590
   D10       -1.72857   0.00034  -0.00146   0.00575   0.00428  -1.72429
   D11        0.37352   0.00048  -0.00016   0.01072   0.01054   0.38406
   D12        2.58245   0.00021   0.00006   0.00513   0.00519   2.58764
   D13        0.30702  -0.00014  -0.00214  -0.00589  -0.00804   0.29897
   D14        2.40911   0.00000  -0.00085  -0.00093  -0.00179   2.40732
   D15       -1.66515  -0.00027  -0.00063  -0.00652  -0.00714  -1.67229
   D16        2.33376   0.00004  -0.00107   0.00065  -0.00041   2.33335
   D17       -1.84734   0.00018   0.00022   0.00562   0.00584  -1.84149
   D18        0.36160  -0.00009   0.00045   0.00003   0.00049   0.36209
   D19        1.72815  -0.00030   0.00139  -0.00575  -0.00435   1.72380
   D20       -2.59114  -0.00032  -0.00011  -0.00641  -0.00651  -2.59765
   D21       -0.36803  -0.00041   0.00030  -0.00792  -0.00759  -0.37563
   D22       -0.30717   0.00025   0.00213   0.00630   0.00843  -0.29874
   D23        1.65672   0.00022   0.00063   0.00564   0.00627   1.66299
   D24       -2.40335   0.00014   0.00105   0.00413   0.00518  -2.39817
   D25       -2.33300   0.00006   0.00105   0.00089   0.00193  -2.33108
   D26       -0.36911   0.00004  -0.00045   0.00023  -0.00023  -0.36935
   D27        1.85400  -0.00005  -0.00004  -0.00128  -0.00132   1.85268
   D28       -0.30809   0.00032   0.00206   0.00644   0.00850  -0.29959
   D29       -2.44167   0.00012   0.00129   0.00839   0.00970  -2.43197
   D30        1.62196  -0.00021   0.00193  -0.00005   0.00186   1.62382
   D31       -2.41542   0.00046   0.00095   0.00945   0.01039  -2.40503
   D32        1.73418   0.00026   0.00019   0.01140   0.01159   1.74577
   D33       -0.48537  -0.00007   0.00082   0.00296   0.00376  -0.48162
   D34        1.65813   0.00032   0.00117   0.00681   0.00798   1.66612
   D35       -0.47545   0.00013   0.00041   0.00877   0.00918  -0.46626
   D36       -2.69500  -0.00020   0.00104   0.00032   0.00135  -2.69365
   D37        0.30812  -0.00028  -0.00206  -0.00631  -0.00837   0.29975
   D38       -1.66753  -0.00058  -0.00127  -0.01204  -0.01331  -1.68084
   D39        2.42081  -0.00056  -0.00083  -0.01112  -0.01195   2.40886
   D40        2.47671   0.00032  -0.00109  -0.00267  -0.00377   2.47294
   D41        0.50106   0.00002  -0.00030  -0.00841  -0.00871   0.49235
   D42       -1.69379   0.00004   0.00013  -0.00748  -0.00735  -1.70114
   D43       -1.62932   0.00010  -0.00228  -0.00784  -0.01011  -1.63943
   D44        2.67822  -0.00020  -0.00149  -0.01357  -0.01505   2.66317
   D45        0.48337  -0.00018  -0.00105  -0.01265  -0.01369   0.46968
   D46        2.79304  -0.00041   0.00041  -0.05888  -0.05843   2.73461
   D47       -0.33904  -0.00063   0.00106  -0.07779  -0.07681  -0.41585
   D48        0.93053   0.00008  -0.00120  -0.05536  -0.05648   0.87405
   D49       -2.20155  -0.00014  -0.00055  -0.07428  -0.07485  -2.27641
   D50       -1.25725   0.00013  -0.00004  -0.04847  -0.04846  -1.30571
[...]
   104    C    5  pz     Ryd( 4p)     0.00049       0.79352
   105    C    5  pz     Ryd( 5p)     0.00008       2.34760
   106    C    5  dxy    Ryd( 3d)     0.00036       2.25959
   107    C    5  dxz    Ryd( 3d)     0.00040       2.38670
   108    C    5  dyz    Ryd( 3d)     0.00037       2.38652
   109    C    5  dx2y2  Ryd( 3d)     0.00024       2.07311
   110    C    5  dz2    Ryd( 3d)     0.00044       2.17644
 
   111    C    6  S      Cor( 1S)     0.99951      -9.88686
   112    C    6  S      Val( 2S)     0.42196       0.05784
   113    C    6  S      Ryd( 3S)     0.00160       1.29191
   114    C    6  S      Ryd( 4S)     0.00020       2.22223
   115    C    6  S      Ryd( 5S)     0.00001      23.11823
   116    C    6  px     Val( 2p)     0.51908       0.12385
   117    C    6  px     Ryd( 4p)     0.00283       1.38292
   118    C    6  px     Ryd( 3p)     0.00091       0.96896
   119    C    6  px     Ryd( 5p)     0.00005       3.31751
   120    C    6  py     Val( 2p)     0.47857       0.14715
   121    C    6  py     Ryd( 4p)     0.00494       1.09571
   122    C    6  py     Ryd( 3p)     0.00103       0.83674
   123    C    6  py     Ryd( 5p)     0.00007       3.34884
   124    C    6  pz     Val( 2p)     0.47980       0.07364
   125    C    6  pz     Ryd( 4p)     0.00154       0.68787
   126    C    6  pz     Ryd( 3p)     0.00026       0.67520
   127    C    6  pz     Ryd( 5p)     0.00001       2.92617
   128    C    6  dxy    Ryd( 3d)     0.00071       2.80606
   129    C    6  dxz    Ryd( 3d)     0.00035       1.86468
   130    C    6  dyz    Ryd( 3d)     0.00047       1.86800
   131    C    6  dx2y2  Ryd( 3d)     0.00073       2.71239
   132    C    6  dz2    Ryd( 3d)     0.00026       2.23365
 
   133    N    7  S      Cor( 1S)     0.99967     -13.91282
   134    N    7  S      Val( 2S)     0.66737      -0.29439
   135    N    7  S      Ryd( 4S)     0.00105       1.86580
   136    N    7  S      Ryd( 3S)     0.00002       0.95505
   137    N    7  S      Ryd( 5S)     0.00000      35.45750
   138    N    7  px     Val( 2p)     0.70698       0.00033
   139    N    7  px     Ryd( 3p)     0.00296       1.18562
   140    N    7  px     Ryd( 4p)     0.00049       1.19548
   141    N    7  px     Ryd( 5p)     0.00001       4.10293
   142    N    7  py     Val( 2p)     0.74073      -0.00552
   143    N    7  py     Ryd( 4p)     0.00311       0.95336
   144    N    7  py     Ryd( 3p)     0.00043       0.91512
   145    N    7  py     Ryd( 5p)     0.00003       4.33413
   146    N    7  pz     Val( 2p)     0.52078       0.03680
   147    N    7  pz     Ryd( 3p)     0.00062       0.73257
   148    N    7  pz     Ryd( 4p)     0.00013       0.89475
   149    N    7  pz     Ryd( 5p)     0.00002       4.03410
   150    N    7  dxy    Ryd( 3d)     0.00053       2.86914
   151    N    7  dxz    Ryd( 3d)     0.00039       2.44697
   152    N    7  dyz    Ryd( 3d)     0.00046       2.42245
   153    N    7  dx2y2  Ryd( 3d)     0.00074       3.28552
   154    N    7  dz2    Ryd( 3d)     0.00041       2.86772
 
   155    C    8  S      Cor( 1S)     0.99960      -9.88916
   156    C    8  S      Val( 2S)     0.45939       0.01999
   157    C    8  S      Ryd( 4S)     0.00123       0.95634
   158    C    8  S      Ryd( 3S)     0.00001       0.59987
   159    C    8  S      Ryd( 5S)     0.00001      23.47662
   160    C    8  px     Val( 2p)     0.46868       0.15128
   161    C    8  px     Ryd( 3p)     0.00671       0.85987
   162    C    8  px     Ryd( 4p)     0.00060       0.92668
   163    C    8  px     Ryd( 5p)     0.00008       2.74007
   164    C    8  py     Val( 2p)     0.56768       0.11873
   165    C    8  py     Ryd( 4p)     0.00271       0.94206
   166    C    8  py     Ryd( 3p)     0.00091       0.89470
   167    C    8  py     Ryd( 5p)     0.00004       2.82752
   168    C    8  pz     Val( 2p)     0.48764       0.06058
   169    C    8  pz     Ryd( 3p)     0.00125       0.49498
   170    C    8  pz     Ryd( 4p)     0.00003       0.76633
   171    C    8  pz     Ryd( 5p)     0.00000       2.65314
   172    C    8  dxy    Ryd( 3d)     0.00075       2.74639
   173    C    8  dxz    Ryd( 3d)     0.00054       1.83508
   174    C    8  dyz    Ryd( 3d)     0.00019       1.77406
   175    C    8  dx2y2  Ryd( 3d)     0.00065       2.72015
   176    C    8  dz2    Ryd( 3d)     0.00025       2.24168
 
   177    C    9  S      Cor( 1S)     0.99960      -9.88638
   178    C    9  S      Val( 2S)     0.45991       0.01926
   179    C    9  S      Ryd( 3S)     0.00132       0.92879
   180    C    9  S      Ryd( 4S)     0.00002      11.32513
   181    C    9  S      Ryd( 5S)     0.00000      12.74760
   182    C    9  px     Val( 2p)     0.56592       0.12124
   183    C    9  px     Ryd( 4p)     0.00252       0.90087
   184    C    9  px     Ryd( 3p)     0.00079       0.87235
   185    C    9  px     Ryd( 5p)     0.00004       2.93509
   186    C    9  py     Val( 2p)     0.46991       0.14785
   187    C    9  py     Ryd( 3p)     0.00787       0.81288
   188    C    9  py     Ryd( 4p)     0.00084       1.01647
   189    C    9  py     Ryd( 5p)     0.00008       2.95925
   190    C    9  pz     Val( 2p)     0.49286       0.06166
   191    C    9  pz     Ryd( 3p)     0.00141       0.45920
   192    C    9  pz     Ryd( 4p)     0.00003       0.77179
   193    C    9  pz     Ryd( 5p)     0.00000       2.68973
   194    C    9  dxy    Ryd( 3d)     0.00068       2.76372
   195    C    9  dxz    Ryd( 3d)     0.00023       1.76722
   196    C    9  dyz    Ryd( 3d)     0.00047       1.83977
   197    C    9  dx2y2  Ryd( 3d)     0.00073       2.67395
   198    C    9  dz2    Ryd( 3d)     0.00026       2.20835
 
   199    N   10  S      Cor( 1S)     0.99971     -13.91775
   200    N   10  S      Val( 2S)     0.67113      -0.30179
   201    N   10  S      Ryd( 4S)     0.00135       1.83857
   202    N   10  S      Ryd( 3S)     0.00002       0.79718
   203    N   10  S      Ryd( 5S)     0.00000      35.41537
   204    N   10  px     Val( 2p)     0.70221       0.00483
   205    N   10  px     Ryd( 4p)     0.00355       0.99446
   206    N   10  px     Ryd( 3p)     0.00031       0.94685
   207    N   10  px     Ryd( 5p)     0.00004       4.22071
   208    N   10  py     Val( 2p)     0.74004      -0.00496
   209    N   10  py     Ryd( 4p)     0.00423       0.96682
   210    N   10  py     Ryd( 3p)     0.00036       0.94090
   211    N   10  py     Ryd( 5p)     0.00002       4.32141
   212    N   10  pz     Val( 2p)     0.51213       0.03887
   213    N   10  pz     Ryd( 3p)     0.00054       0.69562
   214    N   10  pz     Ryd( 4p)     0.00006       0.86922
   215    N   10  pz     Ryd( 5p)     0.00002       4.03440
   216    N   10  dxy    Ryd( 3d)     0.00056       2.83537
   217    N   10  dxz    Ryd( 3d)     0.00039       2.43807
   218    N   10  dyz    Ryd( 3d)     0.00048       2.41817
   219    N   10  dx2y2  Ryd( 3d)     0.00078       3.26564
   220    N   10  dz2    Ryd( 3d)     0.00045       2.85312
 
   221    C   11  S      Cor( 1S)     0.99954      -9.88647
   222    C   11  S      Val( 2S)     0.45482       0.02667
   223    C   11  S      Ryd( 3S)     0.00140       0.98020
   224    C   11  S      Ryd( 5S)     0.00002      14.27311
   225    C   11  S      Ryd( 4S)     0.00000       9.63666
   226    C   11  px     Val( 2p)     0.47087       0.15032
   227    C   11  px     Ryd( 4p)     0.00730       1.10148
   228    C   11  px     Ryd( 3p)     0.00112       0.75229
   229    C   11  px     Ryd( 5p)     0.00009       2.57885
   230    C   11  py     Val( 2p)     0.56637       0.12084
   231    C   11  py     Ryd( 4p)     0.00245       0.88522
   232    C   11  py     Ryd( 3p)     0.00094       0.79076
   233    C   11  py     Ryd( 5p)     0.00005       2.96941
   234    C   11  pz     Val( 2p)     0.49509       0.05937
   235    C   11  pz     Ryd( 3p)     0.00101       0.52552
   236    C   11  pz     Ryd( 4p)     0.00012       0.63913
   237    C   11  pz     Ryd( 5p)     0.00001       2.72245
   238    C   11  dxy    Ryd( 3d)     0.00082       2.72540
   239    C   11  dxz    Ryd( 3d)     0.00052       1.83509
   240    C   11  dyz    Ryd( 3d)     0.00019       1.78360
   241    C   11  dx2y2  Ryd( 3d)     0.00062       2.73255
   242    C   11  dz2    Ryd( 3d)     0.00023       2.22473
 
   243    H   12  S      Val( 1S)     0.40629       0.13748
   244    H   12  S      Ryd( 2S)     0.00038       0.94000
   245    H   12  S      Ryd( 3S)     0.00004       1.02446
   246    H   12  S      Ryd( 4S)     0.00002       1.42233
   247    H   12  px     Ryd( 2p)     0.00009       2.20947
   248    H   12  py     Ryd( 2p)     0.00006       1.85637
   249    H   12  pz     Ryd( 2p)     0.00013       2.46980
 
   250    H   13  S      Val( 1S)     0.40400       0.13968
   251    H   13  S      Ryd( 3S)     0.00039       0.86932
   252    H   13  S      Ryd( 4S)     0.00010       2.19137
   253    H   13  S      Ryd( 2S)     0.00000       0.38162
   254    H   13  px     Ryd( 2p)     0.00007       1.94741
   255    H   13  py     Ryd( 2p)     0.00015       2.74973
   256    H   13  pz     Ryd( 2p)     0.00007       1.86774
 
   257    H   14  S      Val( 1S)     0.40629       0.13748
   258    H   14  S      Ryd( 2S)     0.00038       0.94007
   259    H   14  S      Ryd( 3S)     0.00004       1.02392
   260    H   14  S      Ryd( 4S)     0.00002       1.42279
   261    H   14  px     Ryd( 2p)     0.00009       2.20945
   262    H   14  py     Ryd( 2p)     0.00006       1.85641
   263    H   14  pz     Ryd( 2p)     0.00013       2.46978
 
   264    H   15  S      Val( 1S)     0.41249       0.16176
   265    H   15  S      Ryd( 3S)     0.00088       0.71396
   266    H   15  S      Ryd( 4S)     0.00011       2.58277
   267    H   15  S      Ryd( 2S)     0.00000       0.40871
   268    H   15  px     Ryd( 2p)     0.00008       2.29521
   269    H   15  py     Ryd( 2p)     0.00018       2.73451
   270    H   15  pz     Ryd( 2p)     0.00008       1.85580
 
   271    H   16  S      Val( 1S)     0.41066       0.16267
   272    H   16  S      Ryd( 2S)     0.00072       0.34019
   273    H   16  S      Ryd( 3S)     0.00032       0.89569
   274    H   16  S      Ryd( 4S)     0.00007       2.18689
   275    H   16  px     Ryd( 2p)     0.00009       1.96692
   276    H   16  py     Ryd( 2p)     0.00012       2.20654
   277    H   16  pz     Ryd( 2p)     0.00013       2.60987
 
   278    H   17  S      Val( 1S)     0.39049       0.19281
   279    H   17  S      Ryd( 2S)     0.00041       0.52129
   280    H   17  S      Ryd( 4S)     0.00070       1.86157
   281    H   17  S      Ryd( 3S)     0.00004       0.99201
   282    H   17  px     Ryd( 2p)     0.00013       2.09984
   283    H   17  py     Ryd( 2p)     0.00012       2.53761
   284    H   17  pz     Ryd( 2p)     0.00004       2.19636
 
   285    H   18  S      Val( 1S)     0.40523       0.17816
   286    H   18  S      Ryd( 3S)     0.00091       0.69554
   287    H   18  S      Ryd( 4S)     0.00011       2.70439
   288    H   18  S      Ryd( 2S)     0.00000       0.50371
   289    H   18  px     Ryd( 2p)     0.00007       2.16372
   290    H   18  py     Ryd( 2p)     0.00014       2.91598
   291    H   18  pz     Ryd( 2p)     0.00009       1.87693
 
   292    H   19  S      Val( 1S)     0.39048       0.19282
   293    H   19  S      Ryd( 2S)     0.00041       0.52132
   294    H   19  S      Ryd( 4S)     0.00070       1.86143
   295    H   19  S      Ryd( 3S)     0.00004       0.99206
   296    H   19  px     Ryd( 2p)     0.00013       2.09988
   297    H   19  py     Ryd( 2p)     0.00012       2.53770
   298    H   19  pz     Ryd( 2p)     0.00004       2.19628
 
   299    H   20  S      Val( 1S)     0.41066       0.16266
   300    H   20  S      Ryd( 2S)     0.00072       0.34011
   301    H   20  S      Ryd( 3S)     0.00032       0.89597
   302    H   20  S      Ryd( 4S)     0.00007       2.18652
   303    H   20  px     Ryd( 2p)     0.00009       1.96695
   304    H   20  py     Ryd( 2p)     0.00012       2.20635
   305    H   20  pz     Ryd( 2p)     0.00013       2.61003
 
   306    H   21  S      Val( 1S)     0.42238       0.18717
   307    H   21  S      Ryd( 3S)     0.00066       1.17818
   308    H   21  S      Ryd( 4S)     0.00005       1.94084
   309    H   21  S      Ryd( 2S)     0.00001       0.44742
   310    H   21  px     Ryd( 2p)     0.00007       2.23123
   311    H   21  py     Ryd( 2p)     0.00027       2.80611
   312    H   21  pz     Ryd( 2p)     0.00010       1.75842
 
   313    H   22  S      Val( 1S)     0.42203       0.18878
   314    H   22  S      Ryd( 3S)     0.00068       1.12747
   315    H   22  S      Ryd( 4S)     0.00006       1.84729
   316    H   22  S      Ryd( 2S)     0.00001       0.56611
   317    H   22  px     Ryd( 2p)     0.00028       2.84877
   318    H   22  py     Ryd( 2p)     0.00005       2.17123
   319    H   22  pz     Ryd( 2p)     0.00010       1.75579
 
   320    H   23  S      Val( 1S)     0.42119       0.18803
   321    H   23  S      Ryd( 3S)     0.00071       1.35251
   322    H   23  S      Ryd( 4S)     0.00006       1.74480
   323    H   23  S      Ryd( 2S)     0.00001       0.45333
   324    H   23  px     Ryd( 2p)     0.00006       2.24777
   325    H   23  py     Ryd( 2p)     0.00026       2.83445
   326    H   23  pz     Ryd( 2p)     0.00010       1.76748

 WARNING:  Population inversion found on atom  C    1
           Population inversion found on atom  C    2
           Population inversion found on atom  C    3
           Population inversion found on atom  C    4
           Population inversion found on atom  C    5
           Population inversion found on atom  C    6
           Population inversion found on atom  N    7
           Population inversion found on atom  C    8
           Population inversion found on atom  C    9
           Population inversion found on atom  N   10
           Population inversion found on atom  C   11
           Population inversion found on atom  H   13
           Population inversion found on atom  H   15
           Population inversion found on atom  H   17
           Population inversion found on atom  H   18
           Population inversion found on atom  H   19
           Population inversion found on atom  H   21
           Population inversion found on atom  H   22
           Population inversion found on atom  H   23


 Summary of Natural Population Analysis:                  
                                                          
                                       Natural Population 
                Natural  -----------------------------------------------
    Atom  No    Charge         Core      Valence    Rydberg      Total
 -----------------------------------------------------------------------
      C    1   -0.28327      0.99965     2.27845    0.00517     3.28327
      C    2   -0.11432      0.99963     2.10564    0.00905     3.11432
      C    3   -0.18110      0.99962     2.17230    0.00918     3.18110
      C    4   -0.11562      0.99958     2.10381    0.01223     3.11562
      C    5   -0.18111      0.99962     2.17231    0.00918     3.18111
      C    6    0.08510      0.99951     1.89941    0.01597     2.91490
      N    7   -0.14693      0.99967     2.63585    0.01140     3.64693
      C    8    0.00108      0.99960     1.98339    0.01593     2.99892
      C    9   -0.00549      0.99960     1.98860    0.01729     3.00549
      N   10   -0.13839      0.99971     2.62552    0.01317     3.63839
      C   11   -0.00359      0.99954     1.98716    0.01689     3.00359
      H   12    0.09298      0.00000     0.40629    0.00073     0.40702
      H   13    0.09522      0.00000     0.40400    0.00078     0.40478
      H   14    0.09298      0.00000     0.40629    0.00073     0.40702
      H   15    0.08618      0.00000     0.41249    0.00133     0.41382
      H   16    0.08789      0.00000     0.41066    0.00145     0.41211
      H   17    0.10809      0.00000     0.39049    0.00143     0.39191
      H   18    0.09344      0.00000     0.40523    0.00133     0.40656
      H   19    0.10809      0.00000     0.39048    0.00143     0.39191
      H   20    0.08789      0.00000     0.41066    0.00145     0.41211
      H   21    0.07647      0.00000     0.42238    0.00115     0.42353
      H   22    0.07679      0.00000     0.42203    0.00117     0.42321
      H   23    0.07761      0.00000     0.42119    0.00120     0.42239
 =======================================================================
   * Total *    0.00000     10.99573    28.85464    0.14962    40.00000

                                 Natural Population      
 --------------------------------------------------------
   Core                      10.99573 ( 99.9612% of  11)
   Valence                   28.85464 ( 99.4988% of  29)
   Natural Minimal Basis     39.85038 ( 99.6259% of  40)
   Natural Rydberg Basis      0.14962 (  0.3741% of  40)
 --------------------------------------------------------

    Atom  No          Natural Electron Configuration
 ----------------------------------------------------------------------------
      C    1      [core]2S( 0.54)2p( 1.74)
      C    2      [core]2S( 0.49)2p( 1.62)4p( 0.01)
      C    3      [core]2S( 0.52)2p( 1.66)
      C    4      [core]2S( 0.48)2p( 1.62)4p( 0.01)
      C    5      [core]2S( 0.52)2p( 1.66)
      C    6      [core]2S( 0.42)2p( 1.48)4p( 0.01)
      N    7      [core]2S( 0.67)2p( 1.97)
      C    8      [core]2S( 0.46)2p( 1.52)3p( 0.01)
      C    9      [core]2S( 0.46)2p( 1.53)3p( 0.01)
      N   10      [core]2S( 0.67)2p( 1.95)4p( 0.01)
      C   11      [core]2S( 0.45)2p( 1.53)4p( 0.01)
      H   12            1S( 0.41)
      H   13            1S( 0.40)
      H   14            1S( 0.41)
      H   15            1S( 0.41)
      H   16            1S( 0.41)
      H   17            1S( 0.39)
      H   18            1S( 0.41)
      H   19            1S( 0.39)
      H   20            1S( 0.41)
      H   21            1S( 0.42)
      H   22            1S( 0.42)
      H   23            1S( 0.42)


 NBO analysis skipped by request.
 1\1\GINC-NODE313\SP\UB3LYP\6-311++G(d,p)\C9H12N2(1-,2)\VSC10255\08-Dec
 -2020\0\\# B3LYP/6-311++G(d,p) empiricaldispersion=gd3bj scf=xqc pop=n
 pa geom=check\\CID_70323194_JID_1022_Energie_anion\\-1,2\C,0,-1.749289
 7035,0.1966456172,-0.1734006369\C,0,-0.5085792055,-0.4030269098,0.4806
 448062\C,0,0.5618334801,0.6469903348,0.8895916864\C,0,1.3551095629,0.3
 243968648,-0.4133887964\C,0,0.5194844259,-0.9869016002,-0.5281472835\C
 ,0,2.8438182281,0.1963214444,-0.3101457744\N,0,3.3326339379,-0.6313112
 81,0.6289007022\C,0,4.660551802,-0.736454235,0.7103856716\C,0,5.514912
 9037,-0.0255544407,-0.1343091066\N,0,5.0443880159,0.801797773,-1.07353
 02428\C,0,3.7146464483,0.9038463438,-1.1513527594\H,0,-2.3495369733,0.
 7542629815,0.5555137837\H,0,-1.4795855771,0.8898938126,-0.980368713\H,
 0,-2.3842331637,-0.5853258409,-0.6068940562\H,0,-0.8080531923,-1.08918
 94232,1.2804098745\H,0,0.2276157381,1.6819223996,1.0197399318\H,0,1.13
 11485512,0.3350611308,1.769133413\H,0,1.1033511748,1.0262048521,-1.214
 567666\H,0,1.0750351762,-1.8303508457,-0.1098729294\H,0,0.1515303839,-
 1.2512787317,-1.5253826825\H,0,5.0572411304,-1.4066260678,1.4707966047
 \H,0,6.5952390369,-0.1238301728,-0.0533512506\H,0,3.3187078192,1.57438
 59941,-1.9122245764\\Version=ES64L-G16RevA.03\State=2-A\HF=-459.810710
 8\S2=0.757202\S2-1=0.\S2A=0.750025\RMSD=9.068e-09\Dipole=-2.5260567,-0
 .2038077,0.310287\Quadrupole=-12.1670553,6.2223505,5.9447048,-3.316601
 6,4.3737149,0.2173563\PG=C01 [X(C9H12N2)]\\@


 CURIOUSER AND CURIOUSER

                  -- ALICE, IN WONDERLAND
 Job cpu time:       0 days  0 hours 16 minutes 17.7 seconds.
 Elapsed time:       0 days  0 hours  4 minutes  9.1 seconds.
 File lengths (MBytes):  RWF=    156 Int=      0 D2E=      0 Chk=     16 Scr=      8
 Normal termination of Gaussian 16 at Tue Dec  8 19:27:07 2020.
