 Entering Gaussian System, Link 0=g16
 Initial command:
 /apps/brussel/CO7/skylake/software/Gaussian/G16.A.03-intel-2017b/g16/l1.exe "/scratch/brussel/102/vsc10255/3555211[7644].master01.hydra.brussel.vsc/Gau-81899.inp" -scrdir="/scratch/brussel/102/vsc10255/3555211[7644].master01.hydra.brussel.vsc/"
 Entering Link 1 = /apps/brussel/CO7/skylake/software/Gaussian/G16.A.03-intel-2017b/g16/l1.exe.bin PID=     81900.
  
 Copyright (c) 1988,1990,1992,1993,1995,1998,2003,2009,2016,
            Gaussian, Inc.  All Rights Reserved.
  
 This is part of the Gaussian(R) 16 program.  It is based on
 the Gaussian(R) 09 system (copyright 2009, Gaussian, Inc.),
 the Gaussian(R) 03 system (copyright 2003, Gaussian, Inc.),
 the Gaussian(R) 98 system (copyright 1998, Gaussian, Inc.),
 the Gaussian(R) 94 system (copyright 1995, Gaussian, Inc.),
 the Gaussian 92(TM) system (copyright 1992, Gaussian, Inc.),
 the Gaussian 90(TM) system (copyright 1990, Gaussian, Inc.),
 the Gaussian 88(TM) system (copyright 1988, Gaussian, Inc.),
 the Gaussian 86(TM) system (copyright 1986, Carnegie Mellon
 University), and the Gaussian 82(TM) system (copyright 1983,
 Carnegie Mellon University). Gaussian is a federally registered
 trademark of Gaussian, Inc.
  
 This software contains proprietary and confidential information,
 including trade secrets, belonging to Gaussian, Inc.
  
 This software is provided under written license and may be
 used, copied, transmitted, or stored only in accord with that
 written license.
  
 The following legend is applicable only to US Government
 contracts under FAR:
  
                    RESTRICTED RIGHTS LEGEND
  
 Use, reproduction and disclosure by the US Government is
 subject to restrictions as set forth in subparagraphs (a)
 and (c) of the Commercial Computer Software - Restricted
 Rights clause in FAR 52.227-19.
  
 Gaussian, Inc.
 340 Quinnipiac St., Bldg. 40, Wallingford CT 06492
  
  
 ---------------------------------------------------------------
 Warning -- This program may not be used in any manner that
 competes with the business of Gaussian, Inc. or will provide
 assistance to any competitor of Gaussian, Inc.  The licensee
 of this program is prohibited from giving any competitor of
 Gaussian, Inc. access to this program.  By using this program,
 the user acknowledges that Gaussian, Inc. is engaged in the
 business of creating and licensing software in the field of
 computational chemistry and represents and warrants to the
 licensee that it is not a competitor of Gaussian, Inc. and that
 it will not use this program in any manner prohibited above.
 ---------------------------------------------------------------
  

 Cite this work as:
 Gaussian 16, Revision A.03,
 M. J. Frisch, G. W. Trucks, H. B. Schlegel, G. E. Scuseria, 
 M. A. Robb, J. R. Cheeseman, G. Scalmani, V. Barone, 
 G. A. Petersson, H. Nakatsuji, X. Li, M. Caricato, A. V. Marenich, 
 J. Bloino, B. G. Janesko, R. Gomperts, B. Mennucci, H. P. Hratchian, 
 J. V. Ortiz, A. F. Izmaylov, J. L. Sonnenberg, D. Williams-Young, 
 F. Ding, F. Lipparini, F. Egidi, J. Goings, B. Peng, A. Petrone, 
 T. Henderson, D. Ranasinghe, V. G. Zakrzewski, J. Gao, N. Rega, 
 G. Zheng, W. Liang, M. Hada, M. Ehara, K. Toyota, R. Fukuda, 
 J. Hasegawa, M. Ishida, T. Nakajima, Y. Honda, O. Kitao, H. Nakai, 
 T. Vreven, K. Throssell, J. A. Montgomery, Jr., J. E. Peralta, 
 F. Ogliaro, M. J. Bearpark, J. J. Heyd, E. N. Brothers, K. N. Kudin, 
 V. N. Staroverov, T. A. Keith, R. Kobayashi, J. Normand, 
 K. Raghavachari, A. P. Rendell, J. C. Burant, S. S. Iyengar, 
 J. Tomasi, M. Cossi, J. M. Millam, M. Klene, C. Adamo, R. Cammi, 
 J. W. Ochterski, R. L. Martin, K. Morokuma, O. Farkas, 
 J. B. Foresman, and D. J. Fox, Gaussian, Inc., Wallingford CT, 2016.
 
 ******************************************
 Gaussian 16:  ES64L-G16RevA.03 25-Dec-2016
                11-Dec-2020 
 ******************************************
 %chk=JID_7644.chk
 %mem=8GB
 %nprocshared=4
 Will use up to    4 processors via shared memory.
 -----------------------------------------------------------
 # opt freq B3LYP/6-31G(d) empiricaldispersion=gd3bj scf=xqc
 -----------------------------------------------------------
 1/18=20,19=15,26=3,38=1/1,3;
 2/9=110,12=2,17=6,18=5,40=1/2;
 3/5=1,6=6,7=1,11=2,25=1,30=1,71=1,74=-5,124=41/1,2,3;
 4//1;
 5/5=2,8=3,13=1,38=5/2,8;
 6/7=2,8=2,9=2,10=2,28=1/1;
 7//1,2,3,16;
 1/18=20,19=15,26=3/3(2);
 2/9=110/2;
 99//99;
 2/9=110/2;
 3/5=1,6=6,7=1,11=2,25=1,30=1,71=1,74=-5,124=41/1,2,3;
 4/5=5,16=3,69=1/1;
 5/5=2,8=3,13=1,38=5/2,8;
 7//1,2,3,16;
 1/18=20,19=15,26=3/3(-5);
 2/9=110/2;
 6/7=2,8=2,9=2,10=2,19=2,28=1/1;
 99/9=1/99;
 ------------------------------
 CID_55164870_JID_7644_neutraal
 ------------------------------
 Symbolic Z-matrix:
 Charge =  0 Multiplicity = 1
 C                     1.06475   0.00553   0.07601 
 C                     0.39671   1.34582   0.33963 
 C                     0.91715   2.53179  -0.52127 
 C                    -0.09331   3.69929  -0.37375 
 C                     0.01601   4.75639  -1.47416 
 N                    -0.1033    4.0969   -2.79966 
 C                     1.11194   3.29961  -2.97333 
 C                     1.03976   2.11715  -2.00541 
 C                    -0.42568   5.08297  -3.86685 
 C                     0.19751   4.90192  -5.28082 
 C                    -0.4778    3.91789  -6.26323 
 C                    -2.0033    4.04276  -6.2527 
 C                    -2.57303   4.049    -4.84487 
 C                    -1.98039   5.19574  -4.02817 
 O                    -2.65505   5.20872  -2.76779 
 C                    -0.05598   2.45866  -6.09494 
 C                     2.29897   2.98187  -0.00017 
 H                     0.85067  -0.36604  -0.93028 
 H                     0.68679  -0.74111   0.78266 
 H                     2.14933   0.06138   0.20403 
 H                     0.50071   1.59292   1.40405 
 H                    -0.67785   1.20608   0.16436 
 H                    -1.11845   3.30525  -0.39848 
 H                     0.02207   4.17983   0.60619 
 H                     0.95928   5.31225  -1.39106 
 H                    -0.77547   5.49382  -1.30578 
 H                     2.02264   3.89243  -2.8228 
 H                     1.19367   2.86987  -3.9668 
 H                     1.92406   1.48505  -2.15628 
 H                     0.17095   1.50458  -2.28516 
 H                    -0.06134   6.0592   -3.51535 
 H                     0.13336   5.8914   -5.75925 
 H                     1.27438   4.70715  -5.21797 
 H                    -0.13952   4.20187  -7.26977 
 H                    -2.46024   3.23219  -6.83305 
 H                    -2.28744   4.97725  -6.75294 
 H                    -2.39308   3.08901  -4.34502 
 H                    -3.66416   4.15379  -4.88872 
 H                    -2.21542   6.14831  -4.51689 
 H                    -2.34519   4.39825  -2.32254 
 H                    -0.45691   1.8493   -6.91291 
 H                     1.03415   2.36184  -6.13131 
 H                    -0.42257   2.02454  -5.16087 
 H                     2.67355   3.85845  -0.53815 
 H                     2.25286   3.24658   1.06234 
 H                     3.04748   2.18997  -0.10986 
 

 GradGradGradGradGradGradGradGradGradGradGradGradGradGradGradGradGradGrad
 Berny optimization.
 Initialization pass.
                           ----------------------------
                           !    Initial Parameters    !
                           ! (Angstroms and Degrees)  !
 --------------------------                            --------------------------
 ! Name  Definition              Value          Derivative Info.                !
 --------------------------------------------------------------------------------
 ! R1    R(1,2)                  1.5206         estimate D2E/DX2                !
 ! R2    R(1,18)                 1.0939         estimate D2E/DX2                !
 ! R3    R(1,19)                 1.0953         estimate D2E/DX2                !
 ! R4    R(1,20)                 1.0935         estimate D2E/DX2                !
 ! R5    R(2,3)                  1.5552         estimate D2E/DX2                !
 ! R6    R(2,21)                 1.0977         estimate D2E/DX2                !
 ! R7    R(2,22)                 1.0977         estimate D2E/DX2                !
 ! R8    R(3,4)                  1.5511         estimate D2E/DX2                !
 ! R9    R(3,8)                  1.5458         estimate D2E/DX2                !
 ! R10   R(3,17)                 1.5439         estimate D2E/DX2                !
 ! R11   R(4,5)                  1.5298         estimate D2E/DX2                !
 ! R12   R(4,23)                 1.0985         estimate D2E/DX2                !
 ! R13   R(4,24)                 1.0975         estimate D2E/DX2                !
 ! R14   R(5,6)                  1.4853         estimate D2E/DX2                !
 ! R15   R(5,25)                 1.098          estimate D2E/DX2                !
 ! R16   R(5,26)                 1.0948         estimate D2E/DX2                !
 ! R17   R(6,7)                  1.4638         estimate D2E/DX2                !
 ! R18   R(6,9)                  1.4883         estimate D2E/DX2                !
 ! R19   R(7,8)                  1.5298         estimate D2E/DX2                !
 ! R20   R(7,27)                 1.097          estimate D2E/DX2                !
 ! R21   R(7,28)                 1.0855         estimate D2E/DX2                !
 ! R22   R(8,29)                 1.0974         estimate D2E/DX2                !
 ! R23   R(8,30)                 1.0992         estimate D2E/DX2                !
 ! R24   R(9,10)                 1.5558         estimate D2E/DX2                !
 ! R25   R(9,14)                 1.5671         estimate D2E/DX2                !
 ! R26   R(9,31)                 1.0997         estimate D2E/DX2                !
 ! R27   R(10,11)                1.5458         estimate D2E/DX2                !
 ! R28   R(10,32)                1.1009         estimate D2E/DX2                !
 ! R29   R(10,33)                1.0961         estimate D2E/DX2                !
 ! R30   R(11,12)                1.5306         estimate D2E/DX2                !
 ! R31   R(11,16)                1.5283         estimate D2E/DX2                !
 ! R32   R(11,34)                1.0992         estimate D2E/DX2                !
 ! R33   R(12,13)                1.5188         estimate D2E/DX2                !
 ! R34   R(12,35)                1.0966         estimate D2E/DX2                !
 ! R35   R(12,36)                1.0974         estimate D2E/DX2                !
 ! R36   R(13,14)                1.5275         estimate D2E/DX2                !
 ! R37   R(13,37)                1.0972         estimate D2E/DX2                !
 ! R38   R(13,38)                1.097          estimate D2E/DX2                !
 ! R39   R(14,15)                1.4296         estimate D2E/DX2                !
 ! R40   R(14,39)                1.0961         estimate D2E/DX2                !
 ! R41   R(15,40)                0.9753         estimate D2E/DX2                !
 ! R42   R(16,41)                1.096          estimate D2E/DX2                !
 ! R43   R(16,42)                1.095          estimate D2E/DX2                !
 ! R44   R(16,43)                1.0933         estimate D2E/DX2                !
 ! R45   R(17,44)                1.0946         estimate D2E/DX2                !
 ! R46   R(17,45)                1.096          estimate D2E/DX2                !
 ! R47   R(17,46)                1.0952         estimate D2E/DX2                !
 ! A1    A(2,1,18)             111.8959         estimate D2E/DX2                !
 ! A2    A(2,1,19)             109.7186         estimate D2E/DX2                !
 ! A3    A(2,1,20)             111.7416         estimate D2E/DX2                !
 ! A4    A(18,1,19)            107.1232         estimate D2E/DX2                !
 ! A5    A(18,1,20)            108.6119         estimate D2E/DX2                !
 ! A6    A(19,1,20)            107.5498         estimate D2E/DX2                !
 ! A7    A(1,2,3)              115.416          estimate D2E/DX2                !
 ! A8    A(1,2,21)             108.9605         estimate D2E/DX2                !
 ! A9    A(1,2,22)             106.869          estimate D2E/DX2                !
 ! A10   A(3,2,21)             109.4771         estimate D2E/DX2                !
 ! A11   A(3,2,22)             109.6512         estimate D2E/DX2                !
 ! A12   A(21,2,22)            106.0362         estimate D2E/DX2                !
 ! A13   A(2,3,4)              107.6589         estimate D2E/DX2                !
 ! A14   A(2,3,8)              110.6997         estimate D2E/DX2                !
 ! A15   A(2,3,17)             109.5724         estimate D2E/DX2                !
 ! A16   A(4,3,8)              110.1744         estimate D2E/DX2                !
 ! A17   A(4,3,17)             109.3624         estimate D2E/DX2                !
 ! A18   A(8,3,17)             109.3453         estimate D2E/DX2                !
 ! A19   A(3,4,5)              113.9007         estimate D2E/DX2                !
 ! A20   A(3,4,23)             109.621          estimate D2E/DX2                !
 ! A21   A(3,4,24)             110.243          estimate D2E/DX2                !
 ! A22   A(5,4,23)             107.3586         estimate D2E/DX2                !
 ! A23   A(5,4,24)             109.402          estimate D2E/DX2                !
 ! A24   A(23,4,24)            105.9775         estimate D2E/DX2                !
 ! A25   A(4,5,6)              109.2306         estimate D2E/DX2                !
 ! A26   A(4,5,25)             110.9015         estimate D2E/DX2                !
 ! A27   A(4,5,26)             107.6468         estimate D2E/DX2                !
 ! A28   A(6,5,25)             111.1814         estimate D2E/DX2                !
 ! A29   A(6,5,26)             112.2256         estimate D2E/DX2                !
 ! A30   A(25,5,26)            105.5706         estimate D2E/DX2                !
 ! A31   A(5,6,7)              106.3221         estimate D2E/DX2                !
 ! A32   A(5,6,9)              111.2918         estimate D2E/DX2                !
 ! A33   A(7,6,9)              117.1049         estimate D2E/DX2                !
 ! A34   A(6,7,8)              107.8648         estimate D2E/DX2                !
 ! A35   A(6,7,27)             112.2458         estimate D2E/DX2                !
 ! A36   A(6,7,28)             112.7508         estimate D2E/DX2                !
 ! A37   A(8,7,27)             111.7183         estimate D2E/DX2                !
 ! A38   A(8,7,28)             106.0581         estimate D2E/DX2                !
 ! A39   A(27,7,28)            106.0818         estimate D2E/DX2                !
 ! A40   A(3,8,7)              113.8203         estimate D2E/DX2                !
 ! A41   A(3,8,29)             110.512          estimate D2E/DX2                !
 ! A42   A(3,8,30)             109.3368         estimate D2E/DX2                !
 ! A43   A(7,8,29)             108.6757         estimate D2E/DX2                !
 ! A44   A(7,8,30)             107.8791         estimate D2E/DX2                !
 ! A45   A(29,8,30)            106.3151         estimate D2E/DX2                !
 ! A46   A(6,9,10)             119.1968         estimate D2E/DX2                !
 ! A47   A(6,9,14)             109.6562         estimate D2E/DX2                !
 ! A48   A(6,9,31)             106.6902         estimate D2E/DX2                !
 ! A49   A(10,9,14)            108.1924         estimate D2E/DX2                !
 ! A50   A(10,9,31)            105.1351         estimate D2E/DX2                !
 ! A51   A(14,9,31)            107.3201         estimate D2E/DX2                !
 ! A52   A(9,10,11)            118.4697         estimate D2E/DX2                !
 ! A53   A(9,10,32)            105.4871         estimate D2E/DX2                !
 ! A54   A(9,10,33)            111.2284         estimate D2E/DX2                !
 ! A55   A(11,10,32)           105.6939         estimate D2E/DX2                !
 ! A56   A(11,10,33)           110.6412         estimate D2E/DX2                !
 ! A57   A(32,10,33)           103.9961         estimate D2E/DX2                !
 ! A58   A(10,11,12)           112.2778         estimate D2E/DX2                !
 ! A59   A(10,11,16)           114.6618         estimate D2E/DX2                !
 ! A60   A(10,11,34)           106.4428         estimate D2E/DX2                !
 ! A61   A(12,11,16)           110.6233         estimate D2E/DX2                !
 ! A62   A(12,11,34)           106.9745         estimate D2E/DX2                !
 ! A63   A(16,11,34)           105.2231         estimate D2E/DX2                !
 ! A64   A(11,12,13)           112.3698         estimate D2E/DX2                !
 ! A65   A(11,12,35)           110.5689         estimate D2E/DX2                !
 ! A66   A(11,12,36)           108.9287         estimate D2E/DX2                !
 ! A67   A(13,12,35)           109.7116         estimate D2E/DX2                !
 ! A68   A(13,12,36)           108.7794         estimate D2E/DX2                !
 ! A69   A(35,12,36)           106.278          estimate D2E/DX2                !
 ! A70   A(12,13,14)           110.6806         estimate D2E/DX2                !
 ! A71   A(12,13,37)           110.9272         estimate D2E/DX2                !
 ! A72   A(12,13,38)           109.6609         estimate D2E/DX2                !
 ! A73   A(14,13,37)           110.4657         estimate D2E/DX2                !
 ! A74   A(14,13,38)           109.6064         estimate D2E/DX2                !
 ! A75   A(37,13,38)           105.362          estimate D2E/DX2                !
 ! A76   A(9,14,13)            112.7012         estimate D2E/DX2                !
 ! A77   A(9,14,15)            112.2142         estimate D2E/DX2                !
 ! A78   A(9,14,39)            108.7328         estimate D2E/DX2                !
 ! A79   A(13,14,15)           107.1628         estimate D2E/DX2                !
 ! A80   A(13,14,39)           109.3196         estimate D2E/DX2                !
 ! A81   A(15,14,39)           106.499          estimate D2E/DX2                !
 ! A82   A(14,15,40)           104.1826         estimate D2E/DX2                !
 ! A83   A(11,16,41)           110.3484         estimate D2E/DX2                !
 ! A84   A(11,16,42)           110.8268         estimate D2E/DX2                !
 ! A85   A(11,16,43)           112.3747         estimate D2E/DX2                !
 ! A86   A(41,16,42)           106.8722         estimate D2E/DX2                !
 ! A87   A(41,16,43)           107.11           estimate D2E/DX2                !
 ! A88   A(42,16,43)           109.0911         estimate D2E/DX2                !
 ! A89   A(3,17,44)            111.954          estimate D2E/DX2                !
 ! A90   A(3,17,45)            111.0992         estimate D2E/DX2                !
 ! A91   A(3,17,46)            111.5381         estimate D2E/DX2                !
 ! A92   A(44,17,45)           107.3052         estimate D2E/DX2                !
 ! A93   A(44,17,46)           107.2146         estimate D2E/DX2                !
 ! A94   A(45,17,46)           107.4879         estimate D2E/DX2                !
 ! D1    D(18,1,2,3)           -65.7076         estimate D2E/DX2                !
 ! D2    D(18,1,2,21)          170.6788         estimate D2E/DX2                !
 ! D3    D(18,1,2,22)           56.5115         estimate D2E/DX2                !
 ! D4    D(19,1,2,3)           175.5327         estimate D2E/DX2                !
 ! D5    D(19,1,2,21)           51.9191         estimate D2E/DX2                !
 ! D6    D(19,1,2,22)          -62.2482         estimate D2E/DX2                !
 ! D7    D(20,1,2,3)            56.3378         estimate D2E/DX2                !
 ! D8    D(20,1,2,21)          -67.2757         estimate D2E/DX2                !
 ! D9    D(20,1,2,22)          178.5569         estimate D2E/DX2                !
 ! D10   D(1,2,3,4)            166.2413         estimate D2E/DX2                !
 ! D11   D(1,2,3,8)             45.7635         estimate D2E/DX2                !
 ! D12   D(1,2,3,17)           -74.9125         estimate D2E/DX2                !
 ! D13   D(21,2,3,4)           -70.4175         estimate D2E/DX2                !
 ! D14   D(21,2,3,8)           169.1048         estimate D2E/DX2                !
 ! D15   D(21,2,3,17)           48.4287         estimate D2E/DX2                !
 ! D16   D(22,2,3,4)            45.5222         estimate D2E/DX2                !
 ! D17   D(22,2,3,8)           -74.9556         estimate D2E/DX2                !
 ! D18   D(22,2,3,17)          164.3684         estimate D2E/DX2                !
 ! D19   D(2,3,4,5)           -161.5029         estimate D2E/DX2                !
 ! D20   D(2,3,4,23)           -41.2091         estimate D2E/DX2                !
 ! D21   D(2,3,4,24)            75.0822         estimate D2E/DX2                !
 ! D22   D(8,3,4,5)            -40.6947         estimate D2E/DX2                !
 ! D23   D(8,3,4,23)            79.5991         estimate D2E/DX2                !
 ! D24   D(8,3,4,24)          -164.1096         estimate D2E/DX2                !
 ! D25   D(17,3,4,5)            79.5165         estimate D2E/DX2                !
 ! D26   D(17,3,4,23)         -160.1897         estimate D2E/DX2                !
 ! D27   D(17,3,4,24)          -43.8985         estimate D2E/DX2                !
 ! D28   D(2,3,8,7)            161.7551         estimate D2E/DX2                !
 ! D29   D(2,3,8,29)           -75.6369         estimate D2E/DX2                !
 ! D30   D(2,3,8,30)            41.0525         estimate D2E/DX2                !
 ! D31   D(4,3,8,7)             42.7875         estimate D2E/DX2                !
 ! D32   D(4,3,8,29)           165.3955         estimate D2E/DX2                !
 ! D33   D(4,3,8,30)           -77.9151         estimate D2E/DX2                !
 ! D34   D(17,3,8,7)           -77.434          estimate D2E/DX2                !
 ! D35   D(17,3,8,29)           45.174          estimate D2E/DX2                !
 ! D36   D(17,3,8,30)          161.8634         estimate D2E/DX2                !
 ! D37   D(2,3,17,44)         -176.2987         estimate D2E/DX2                !
 ! D38   D(2,3,17,45)          -56.3452         estimate D2E/DX2                !
 ! D39   D(2,3,17,46)           63.5599         estimate D2E/DX2                !
 ! D40   D(4,3,17,44)          -58.511          estimate D2E/DX2                !
 ! D41   D(4,3,17,45)           61.4426         estimate D2E/DX2                !
 ! D42   D(4,3,17,46)         -178.6523         estimate D2E/DX2                !
 ! D43   D(8,3,17,44)           62.2065         estimate D2E/DX2                !
 ! D44   D(8,3,17,45)         -177.8399         estimate D2E/DX2                !
 ! D45   D(8,3,17,46)          -57.9348         estimate D2E/DX2                !
 ! D46   D(3,4,5,6)             54.5883         estimate D2E/DX2                !
 ! D47   D(3,4,5,25)           -68.2895         estimate D2E/DX2                !
 ! D48   D(3,4,5,26)           176.6858         estimate D2E/DX2                !
 ! D49   D(23,4,5,6)           -66.9685         estimate D2E/DX2                !
 ! D50   D(23,4,5,25)          170.1537         estimate D2E/DX2                !
 ! D51   D(23,4,5,26)           55.129          estimate D2E/DX2                !
 ! D52   D(24,4,5,6)           178.4587         estimate D2E/DX2                !
 ! D53   D(24,4,5,25)           55.581          estimate D2E/DX2                !
 ! D54   D(24,4,5,26)          -59.4438         estimate D2E/DX2                !
 ! D55   D(4,5,6,7)            -69.0314         estimate D2E/DX2                !
 ! D56   D(4,5,6,9)            162.3848         estimate D2E/DX2                !
 ! D57   D(25,5,6,7)            53.6792         estimate D2E/DX2                !
 ! D58   D(25,5,6,9)           -74.9046         estimate D2E/DX2                !
 ! D59   D(26,5,6,7)           171.6693         estimate D2E/DX2                !
 ! D60   D(26,5,6,9)            43.0855         estimate D2E/DX2                !
 ! D61   D(5,6,7,8)             70.5694         estimate D2E/DX2                !
 ! D62   D(5,6,7,27)           -52.9273         estimate D2E/DX2                !
 ! D63   D(5,6,7,28)          -172.6671         estimate D2E/DX2                !
 ! D64   D(9,6,7,8)           -164.3356         estimate D2E/DX2                !
 ! D65   D(9,6,7,27)            72.1677         estimate D2E/DX2                !
 ! D66   D(9,6,7,28)           -47.5722         estimate D2E/DX2                !
 ! D67   D(5,6,9,10)           143.4528         estimate D2E/DX2                !
 ! D68   D(5,6,9,14)           -91.1403         estimate D2E/DX2                !
 ! D69   D(5,6,9,31)            24.7807         estimate D2E/DX2                !
 ! D70   D(7,6,9,10)            20.8842         estimate D2E/DX2                !
 ! D71   D(7,6,9,14)           146.2911         estimate D2E/DX2                !
 ! D72   D(7,6,9,31)           -97.7879         estimate D2E/DX2                !
 ! D73   D(6,7,8,3)            -58.8997         estimate D2E/DX2                !
 ! D74   D(6,7,8,29)           177.4899         estimate D2E/DX2                !
 ! D75   D(6,7,8,30)            62.6162         estimate D2E/DX2                !
 ! D76   D(27,7,8,3)            64.9168         estimate D2E/DX2                !
 ! D77   D(27,7,8,29)          -58.6936         estimate D2E/DX2                !
 ! D78   D(27,7,8,30)         -173.5672         estimate D2E/DX2                !
 ! D79   D(28,7,8,3)          -179.9365         estimate D2E/DX2                !
 ! D80   D(28,7,8,29)           56.4531         estimate D2E/DX2                !
 ! D81   D(28,7,8,30)          -58.4206         estimate D2E/DX2                !
 ! D82   D(6,9,10,11)           82.2137         estimate D2E/DX2                !
 ! D83   D(6,9,10,32)         -159.7809         estimate D2E/DX2                !
 ! D84   D(6,9,10,33)          -47.6409         estimate D2E/DX2                !
 ! D85   D(14,9,10,11)         -43.8903         estimate D2E/DX2                !
 ! D86   D(14,9,10,32)          74.1152         estimate D2E/DX2                !
 ! D87   D(14,9,10,33)        -173.7449         estimate D2E/DX2                !
 ! D88   D(31,9,10,11)        -158.3167         estimate D2E/DX2                !
 ! D89   D(31,9,10,32)         -40.3112         estimate D2E/DX2                !
 ! D90   D(31,9,10,33)          71.8287         estimate D2E/DX2                !
 ! D91   D(6,9,14,13)          -79.4017         estimate D2E/DX2                !
 ! D92   D(6,9,14,15)           41.6863         estimate D2E/DX2                !
 ! D93   D(6,9,14,39)          159.2295         estimate D2E/DX2                !
 ! D94   D(10,9,14,13)          52.0996         estimate D2E/DX2                !
 ! D95   D(10,9,14,15)         173.1876         estimate D2E/DX2                !
 ! D96   D(10,9,14,39)         -69.2692         estimate D2E/DX2                !
 ! D97   D(31,9,14,13)         165.0773         estimate D2E/DX2                !
 ! D98   D(31,9,14,15)         -73.8347         estimate D2E/DX2                !
 ! D99   D(31,9,14,39)          43.7085         estimate D2E/DX2                !
 ! D100  D(9,10,11,12)          42.9218         estimate D2E/DX2                !
 ! D101  D(9,10,11,16)         -84.4466         estimate D2E/DX2                !
 ! D102  D(9,10,11,34)         159.6562         estimate D2E/DX2                !
 ! D103  D(32,10,11,12)        -74.9749         estimate D2E/DX2                !
 ! D104  D(32,10,11,16)        157.6567         estimate D2E/DX2                !
 ! D105  D(32,10,11,34)         41.7595         estimate D2E/DX2                !
 ! D106  D(33,10,11,12)        173.0443         estimate D2E/DX2                !
 ! D107  D(33,10,11,16)         45.6759         estimate D2E/DX2                !
 ! D108  D(33,10,11,34)        -70.2213         estimate D2E/DX2                !
 ! D109  D(10,11,12,13)        -48.0414         estimate D2E/DX2                !
 ! D110  D(10,11,12,35)       -170.9981         estimate D2E/DX2                !
 ! D111  D(10,11,12,36)         72.5666         estimate D2E/DX2                !
 ! D112  D(16,11,12,13)         81.4508         estimate D2E/DX2                !
 ! D113  D(16,11,12,35)        -41.5059         estimate D2E/DX2                !
 ! D114  D(16,11,12,36)       -157.9413         estimate D2E/DX2                !
 ! D115  D(34,11,12,13)       -164.4567         estimate D2E/DX2                !
 ! D116  D(34,11,12,35)         72.5866         estimate D2E/DX2                !
 ! D117  D(34,11,12,36)        -43.8487         estimate D2E/DX2                !
 ! D118  D(10,11,16,41)       -171.6292         estimate D2E/DX2                !
 ! D119  D(10,11,16,42)        -53.4471         estimate D2E/DX2                !
 ! D120  D(10,11,16,43)         68.8982         estimate D2E/DX2                !
 ! D121  D(12,11,16,41)         60.1639         estimate D2E/DX2                !
 ! D122  D(12,11,16,42)        178.3461         estimate D2E/DX2                !
 ! D123  D(12,11,16,43)        -59.3087         estimate D2E/DX2                !
 ! D124  D(34,11,16,41)        -55.0305         estimate D2E/DX2                !
 ! D125  D(34,11,16,42)         63.1516         estimate D2E/DX2                !
 ! D126  D(34,11,16,43)       -174.5032         estimate D2E/DX2                !
 ! D127  D(11,12,13,14)         58.1797         estimate D2E/DX2                !
 ! D128  D(11,12,13,37)        -64.809          estimate D2E/DX2                !
 ! D129  D(11,12,13,38)        179.2266         estimate D2E/DX2                !
 ! D130  D(35,12,13,14)       -178.3831         estimate D2E/DX2                !
 ! D131  D(35,12,13,37)         58.6283         estimate D2E/DX2                !
 ! D132  D(35,12,13,38)        -57.3361         estimate D2E/DX2                !
 ! D133  D(36,12,13,14)        -62.5143         estimate D2E/DX2                !
 ! D134  D(36,12,13,37)        174.497          estimate D2E/DX2                !
 ! D135  D(36,12,13,38)         58.5326         estimate D2E/DX2                !
 ! D136  D(12,13,14,9)         -61.3869         estimate D2E/DX2                !
 ! D137  D(12,13,14,15)        174.6874         estimate D2E/DX2                !
 ! D138  D(12,13,14,39)         59.6478         estimate D2E/DX2                !
 ! D139  D(37,13,14,9)          61.869          estimate D2E/DX2                !
 ! D140  D(37,13,14,15)        -62.0567         estimate D2E/DX2                !
 ! D141  D(37,13,14,39)       -177.0963         estimate D2E/DX2                !
 ! D142  D(38,13,14,9)         177.5339         estimate D2E/DX2                !
 ! D143  D(38,13,14,15)         53.6081         estimate D2E/DX2                !
 ! D144  D(38,13,14,39)        -61.4314         estimate D2E/DX2                !
 ! D145  D(9,14,15,40)         -55.0142         estimate D2E/DX2                !
 ! D146  D(13,14,15,40)         69.2091         estimate D2E/DX2                !
 ! D147  D(39,14,15,40)       -173.8801         estimate D2E/DX2                !
 --------------------------------------------------------------------------------
 Trust Radius=3.00D-01 FncErr=1.00D-07 GrdErr=1.00D-06 EigMax=2.50D+02 EigMin=1.00D-04
 Number of steps in this run=    276 maximum allowed number of steps=    276.
 GradGradGradGradGradGradGradGradGradGradGradGradGradGradGradGradGradGrad

                          Input orientation:                          
 ---------------------------------------------------------------------
 Center     Atomic      Atomic             Coordinates (Angstroms)
 Number     Number       Type             X           Y           Z
 ---------------------------------------------------------------------
      1          6           0        1.064750    0.005530    0.076010
      2          6           0        0.396710    1.345820    0.339630
      3          6           0        0.917150    2.531790   -0.521270
      4          6           0       -0.093310    3.699290   -0.373750
      5          6           0        0.016010    4.756390   -1.474160
      6          7           0       -0.103300    4.096900   -2.799660
      7          6           0        1.111940    3.299610   -2.973330
      8          6           0        1.039760    2.117150   -2.005410
      9          6           0       -0.425680    5.082970   -3.866850
     10          6           0        0.197510    4.901920   -5.280820
     11          6           0       -0.477800    3.917890   -6.263230
     12          6           0       -2.003300    4.042760   -6.252700
     13          6           0       -2.573030    4.049000   -4.844870
     14          6           0       -1.980390    5.195740   -4.028170
     15          8           0       -2.655050    5.208720   -2.767790
     16          6           0       -0.055980    2.458660   -6.094940
     17          6           0        2.298970    2.981870   -0.000170
     18          1           0        0.850670   -0.366040   -0.930280
     19          1           0        0.686790   -0.741110    0.782660
     20          1           0        2.149330    0.061380    0.204030
     21          1           0        0.500710    1.592920    1.404050
     22          1           0       -0.677850    1.206080    0.164360
     23          1           0       -1.118450    3.305250   -0.398480
     24          1           0        0.022070    4.179830    0.606190
     25          1           0        0.959280    5.312250   -1.391060
     26          1           0       -0.775470    5.493820   -1.305780
     27          1           0        2.022640    3.892430   -2.822800
     28          1           0        1.193670    2.869870   -3.966800
     29          1           0        1.924060    1.485050   -2.156280
     30          1           0        0.170950    1.504580   -2.285160
     31          1           0       -0.061340    6.059200   -3.515350
     32          1           0        0.133360    5.891400   -5.759250
     33          1           0        1.274380    4.707150   -5.217970
     34          1           0       -0.139520    4.201870   -7.269770
     35          1           0       -2.460240    3.232190   -6.833050
     36          1           0       -2.287440    4.977250   -6.752940
     37          1           0       -2.393080    3.089010   -4.345020
     38          1           0       -3.664160    4.153790   -4.888720
     39          1           0       -2.215420    6.148310   -4.516890
     40          1           0       -2.345190    4.398250   -2.322540
     41          1           0       -0.456910    1.849300   -6.912910
     42          1           0        1.034150    2.361840   -6.131310
     43          1           0       -0.422570    2.024540   -5.160870
     44          1           0        2.673550    3.858450   -0.538150
     45          1           0        2.252860    3.246580    1.062340
     46          1           0        3.047480    2.189970   -0.109860
 ---------------------------------------------------------------------
                    Distance matrix (angstroms):
                    1          2          3          4          5
     1  C    0.000000
     2  C    1.520576   0.000000
     3  C    2.600100   1.555163   0.000000
     4  C    3.897082   2.507559   1.551080   0.000000
     5  C    5.106227   3.881592   2.582421   1.529808   0.000000
     6  N    5.135477   4.203997   2.946515   2.458299   1.485299
     7  C    4.489061   3.912103   2.576837   2.893128   2.360250
     8  C    2.965109   2.551015   1.545843   2.539553   2.880257
     9  C    6.599085   5.686571   4.416403   3.771841   2.454936
    10  C    7.309061   6.653945   5.365512   5.060655   3.813762
    11  C    7.607364   7.139893   6.069371   5.906064   4.886934
    12  C    8.109545   7.516139   6.607673   6.190968   5.236538
    13  C    7.334722   6.557864   5.759931   5.124668   4.308737
    14  C    7.283917   6.288892   5.271690   4.376668   3.271331
    15  O    6.999807   5.821623   4.997341   3.817371   3.002106
    16  C    6.734575   6.545764   5.658456   5.854278   5.161042
    17  C    3.222996   2.531939   1.543873   2.525323   3.245531
    18  H    1.093853   2.179270   2.927307   4.210431   5.218405
    19  H    1.095299   2.153067   3.530605   4.654352   5.980442
    20  H    1.093537   2.177120   2.854339   4.312500   5.423144
    21  H    2.145143   1.097663   2.182145   2.819615   4.304250
    22  H    2.117966   1.097691   2.184404   2.616743   3.971258
    23  H    3.984928   2.584547   2.181051   1.098540   2.133048
    24  H    4.335095   2.871066   2.188234   1.097503   2.158776
    25  H    5.506786   4.363982   2.913635   2.178189   1.098018
    26  H    5.951225   4.613814   3.500577   2.134095   1.094804
    27  H    4.942534   4.373767   2.893180   3.242282   2.567454
    28  H    4.956347   4.637156   3.473102   3.905671   3.340523
    29  H    2.812563   2.929462   2.186959   3.485693   3.848065
    30  H    2.936180   2.639260   2.173311   2.922340   3.354996
    31  H    7.128314   6.106278   4.729120   3.929357   2.422757
    32  H    8.340336   7.611044   6.271981   5.818963   4.434413
    33  H    7.083460   6.554065   5.188333   5.133500   3.949941
    34  H    8.545175   8.145399   7.031925   6.914464   5.824155
    35  H    8.400714   7.947823   7.192767   6.895150   6.096942
    36  H    9.087890   8.408121   7.421818   6.865963   5.763695
    37  H    6.403901   5.724298   5.088141   4.629511   4.101915
    38  H    8.013688   7.191036   6.534057   5.774296   5.056283
    39  H    8.341942   7.312518   6.233554   5.259911   4.021806
    40  H    6.056131   4.891063   4.167866   3.058969   2.534419
    41  H    7.386470   7.319938   6.573195   6.805533   6.185049
    42  H    6.639575   6.581162   5.613833   6.017428   5.334747
    43  H    5.806327   5.602444   4.855722   5.082295   4.609467
    44  H    4.220240   3.502543   2.201193   2.776306   2.957183
    45  H    3.590105   2.753269   2.191544   2.787797   3.703627
    46  H    2.955934   2.818016   2.196453   3.494602   4.199719
                    6          7          8          9         10
     6  N    0.000000
     7  C    1.463776   0.000000
     8  C    2.420089   1.529801   0.000000
     9  C    1.488340   2.518537   3.795861   0.000000
    10  C    2.625776   2.954334   4.380941   1.555781   0.000000
    11  C    3.488354   3.705804   4.865664   2.665101   1.545797
    12  C    3.941626   4.583804   5.568452   3.043551   2.554657
    13  C    3.206984   4.200387   4.984659   2.576185   2.931453
    14  C    2.498030   3.777632   4.763463   1.567120   2.529567
    15  O    2.783628   4.228139   4.877566   2.488742   3.813993
    16  C    3.680345   3.437395   4.247532   3.462379   2.587773
    17  C    3.853743   3.217092   2.520781   5.175863   5.998999
    18  H    4.931782   4.204677   2.712543   6.320144   6.863324
    19  H    6.071540   5.533139   4.008438   7.534948   8.297528
    20  H    5.511979   4.653808   3.215425   6.958384   7.571262
    21  H    4.930104   4.737916   3.491391   6.389134   7.465179
    22  H    4.179996   4.175083   2.913440   5.598618   6.638936
    23  H    2.724501   3.406541   2.941373   3.958511   5.302674
    24  H    3.409165   3.843900   3.480057   4.585219   5.933724
    25  H    2.142500   2.564684   3.254622   2.846088   3.984833
    26  H    2.152876   3.340299   3.896979   2.617294   4.134970
    27  H    2.135876   1.097027   2.187647   2.915767   3.223667
    28  H    2.133061   1.085513   2.106496   2.744102   2.616909
    29  H    3.368366   2.149357   1.097405   4.625187   4.941531
    30  H    2.657075   2.140367   1.099242   3.957598   4.529526
    31  H    2.089161   3.047246   4.362579   1.099691   2.126778
    32  H    3.469209   3.928911   5.399800   2.132431   1.100946
    33  H    2.849321   2.654424   4.133242   2.203853   1.096145
    34  H    4.471489   4.565043   5.783619   3.526768   2.135318
    35  H    4.750908   5.259511   6.066253   4.045141   3.501578
    36  H    4.601511   5.353103   6.464478   3.436109   2.889254
    37  H    2.940590   3.769755   4.266460   2.841687   3.297502
    38  H    4.128817   5.216270   5.881177   3.520703   3.952965
    39  H    3.408550   4.644243   5.757949   2.181896   2.821225
    40  H    2.311823   3.685415   4.094127   2.557001   3.933246
    41  H    4.700593   4.481627   5.137638   4.442531   3.522850
    42  H    3.924808   3.295194   4.133153   3.829286   2.806298
    43  H    3.157835   2.960719   3.479068   3.320917   2.945879
    44  H    3.589176   2.946359   2.802543   4.710087   5.450919
    45  H    4.603214   4.194180   3.486877   5.902865   6.870247
    46  H    4.560572   3.630024   2.762128   5.877692   6.497371
                   11         12         13         14         15
    11  C    0.000000
    12  C    1.530638   0.000000
    13  C    2.533559   1.518755   0.000000
    14  C    2.980968   2.505678   1.527493   0.000000
    15  O    4.315641   3.732136   2.380323   1.429648   0.000000
    16  C    1.528269   2.515217   3.229148   3.932747   5.038643
    17  C    6.914659   7.663494   6.953148   6.280042   6.095974
    18  H    6.968303   7.477354   6.821900   6.967440   6.836992
    19  H    8.526847   8.922908   8.077170   8.093462   7.692468
    20  H    7.974957   8.647837   7.980801   7.831204   7.642571
    21  H    8.071564   8.420071   7.384389   6.974610   6.359016
    22  H    6.979101   7.140184   6.063521   5.932226   5.341156
    23  H    5.931362   5.966471   4.737019   4.182289   3.405579
    24  H    6.892562   7.152991   6.038685   5.149681   4.428242
    25  H    5.267588   5.833012   5.099198   3.950897   3.869042
    26  H    5.210420   5.299543   4.224202   2.992005   2.398244
    27  H    4.253164   5.291031   5.023292   4.379016   4.859674
    28  H    3.027499   4.101418   4.043437   3.935492   4.660525
    29  H    5.343658   6.224684   5.833196   5.702449   5.933625
    30  H    4.697870   5.187590   4.533830   4.614218   4.684001
    31  H    3.508489   3.915396   3.480965   2.165941   2.830105
    32  H    2.126559   2.868149   3.399276   2.819312   4.146096
    33  H    2.187609   3.500752   3.921088   3.499696   4.657829
    34  H    1.099182   2.129184   3.438820   3.858050   5.254471
    35  H    2.173694   1.096642   2.152385   3.457331   4.524485
    36  H    2.153336   1.097382   2.141014   2.750707   4.008757
    37  H    2.834584   2.168135   1.097184   2.170027   2.655081
    38  H    3.478192   2.152028   1.097027   2.159002   2.574786
    39  H    3.323221   2.737037   2.154660   1.096119   2.033582
    40  H    4.387132   3.960987   2.556567   1.917875   0.975255
    41  H    2.168314   2.763777   3.686927   4.673476   5.770576
    42  H    2.173635   3.473662   4.184876   4.641297   5.747016
    43  H    2.191580   2.786398   2.970315   3.710299   4.566158
    44  H    6.535372   7.386676   6.790490   5.968898   5.931990
    45  H    7.846728   8.500506   7.669956   6.901661   6.527440
    46  H    7.299128   8.165641   7.580663   7.047502   6.978273
                   16         17         18         19         20
    16  C    0.000000
    17  C    6.554827   0.000000
    18  H    5.956061   3.764463   0.000000
    19  H    7.621786   4.131891   1.761164   0.000000
    20  H    7.091359   2.931442   1.776475   1.765737   0.000000
    21  H    7.569297   2.671096   3.067424   2.422488   2.550218
    22  H    6.413620   3.470152   2.450749   2.456845   3.050387
    23  H    5.856212   3.455718   4.199835   4.585522   4.643716
    24  H    6.919080   2.643304   4.869523   4.968767   4.652805
    25  H    5.594660   3.026552   5.697990   6.437583   5.615351
    26  H    5.715410   4.179317   6.092889   6.736033   6.351802
    27  H    4.133190   2.978711   4.805176   6.021090   4.884127
    28  H    2.501939   4.119270   4.450755   5.987777   5.118274
    29  H    4.514589   2.651384   2.466126   3.888958   2.765619
    30  H    3.933979   3.454278   2.407683   3.836761   3.491831
    31  H    4.429244   5.234263   6.985561   8.079406   7.395586
    32  H    3.454308   6.806044   7.936564   9.332366   8.579859
    33  H    2.755838   5.590332   6.655905   8.126276   7.193525
    34  H    2.103803   7.764130   7.876256   9.484591   8.845348
    35  H    2.631277   8.330726   7.664990   9.148221   8.990143
    36  H    3.428655   8.403368   8.503050   9.916196   9.604694
    37  H    2.986904   6.395665   5.841210   7.102712   7.105905
    38  H    4.165020   7.799374   7.515437   8.663450   8.745318
    39  H    4.557076   7.127890   8.043720   9.163633   8.853748
    40  H    4.820113   5.382170   5.903420   6.726678   6.737411
    41  H    1.095965   7.527520   6.512247   8.200004   7.787168
    42  H    1.095025   6.290873   5.875858   7.586299   6.831711
    43  H    1.093314   5.912367   5.023336   6.648688   6.265047
    44  H    6.347256   1.094589   4.617680   5.181477   3.904277
    45  H    7.561628   1.095958   4.357487   4.293305   3.300441
    46  H    6.747210   1.095173   3.468753   3.867904   2.331544
                   21         22         23         24         25
    21  H    0.000000
    22  H    1.753705   0.000000
    23  H    2.966963   2.217528   0.000000
    24  H    2.749142   3.086793   1.753579   0.000000
    25  H    4.675077   4.686167   3.054542   2.479868   0.000000
    26  H    4.918215   4.533824   2.393881   2.453216   1.746310
    27  H    5.046809   4.840687   4.011054   3.980308   2.279584
    28  H    5.563886   4.830866   4.274150   4.899069   3.557330
    29  H    3.835819   3.497589   3.957254   4.302400   4.020426
    30  H    3.704972   2.609542   2.909386   3.941958   3.989891
    31  H    6.668137   6.121530   4.291457   4.530572   2.472288
    32  H    8.362102   7.596015   6.082192   6.592472   4.483151
    33  H    7.358542   6.711048   5.560435   5.980567   3.887245
    34  H    9.080290   8.033109   6.998347   7.877648   6.082724
    35  H    8.905293   7.499719   6.573388   7.899505   6.755370
    36  H    9.260883   8.041240   6.673926   7.754129   6.277195
    37  H    6.607883   5.178991   4.152905   5.615810   4.990691
    38  H    7.968886   6.568155   5.230957   6.616873   5.912009
    39  H    7.948992   6.978815   5.123245   5.926822   4.533049
    40  H    5.464110   4.376602   2.530128   3.772146   3.552826
    41  H    8.375834   7.109873   6.707848   7.886549   6.669966
    42  H    7.593250   6.625872   6.195890   7.051475   5.583950
    43  H    6.643562   5.393804   4.980444   6.172679   5.189414
    44  H    3.691341   4.331336   3.834684   2.905709   2.404103
    45  H    2.433390   3.682264   3.674666   2.460783   3.458253
    46  H    3.022322   3.862812   4.322282   3.691257   3.968713
                   26         27         28         29         30
    26  H    0.000000
    27  H    3.563035   0.000000
    28  H    4.224175   1.744006   0.000000
    29  H    4.907245   2.499889   2.393570   0.000000
    30  H    4.215321   3.069143   2.395389   1.757949   0.000000
    31  H    2.389945   3.085043   3.456976   5.168339   4.723546
    32  H    4.562613   4.023431   3.669711   5.966902   5.595972
    33  H    4.486197   2.638276   2.224306   4.491988   4.480557
    34  H    6.135368   4.954415   3.802792   6.147134   5.676099
    35  H    6.205170   6.050970   4.658081   6.644303   5.530922
    36  H    5.676658   5.932927   4.931709   7.145731   6.169617
    37  H    4.199613   4.739327   3.613288   5.099114   3.650711
    38  H    4.793503   6.056074   5.108512   6.768796   5.338999
    39  H    3.579531   5.091177   4.761582   6.667366   5.677993
    40  H    2.167509   4.425387   4.190831   5.171158   3.834799
    41  H    6.695066   5.201110   3.527824   5.331719   4.682853
    42  H    6.030735   3.777043   2.229046   4.166721   4.033966
    43  H    5.198284   3.864536   2.180050   3.850361   2.982001
    44  H    3.893511   2.375808   3.863027   2.968688   3.854316
    45  H    4.452961   3.945179   5.153256   3.683831   4.309834
    46  H    5.192359   3.362843   4.332997   2.438610   3.670983
                   31         32         33         34         35
    31  H    0.000000
    32  H    2.258573   0.000000
    33  H    2.551686   1.731288   0.000000
    34  H    4.189446   2.282684   2.542500   0.000000
    35  H    4.975323   3.866679   4.327976   2.552792   0.000000
    36  H    4.075307   2.771888   3.887885   2.341343   1.755424
    37  H    3.866186   4.029434   4.102521   3.856313   2.493051
    38  H    4.300819   4.265943   4.980340   4.253798   2.465601
    39  H    2.377201   2.669500   3.840203   3.959336   3.732062
    40  H    3.065538   4.492625   4.645452   5.420206   4.660218
    41  H    5.424311   4.244752   3.746664   2.400556   2.435589
    42  H    4.659809   3.661645   2.528316   2.461565   3.668884
    43  H    4.372265   3.952180   3.174791   3.044395   2.899432
    44  H    4.602895   6.151856   4.957689   7.303835   8.147010
    45  H    5.849923   7.617181   6.521731   8.721245   9.195146
    46  H    6.019391   7.355834   5.964299   8.091293   8.753427
                   36         37         38         39         40
    36  H    0.000000
    37  H    3.061811   0.000000
    38  H    2.459423   1.744996   0.000000
    39  H    2.525171   3.069270   2.493033   0.000000
    40  H    4.468447   2.409736   2.895639   2.809755   0.000000
    41  H    3.627741   3.446693   4.437845   5.226352   5.579807
    42  H    4.273143   3.932622   5.179694   5.244370   5.483943
    43  H    3.838089   2.383614   3.887888   4.542521   4.169782
    44  H    8.030364   6.383967   7.692935   6.706404   5.353801
    45  H    9.202616   7.130858   8.440928   7.714491   5.824588
    46  H    8.964419   6.953024   8.469959   7.923919   6.233245
                   41         42         43         44         45
    41  H    0.000000
    42  H    1.759789   0.000000
    43  H    1.761117   1.782571   0.000000
    44  H    7.380652   6.017550   5.858219   0.000000
    45  H    8.538141   7.349600   6.883288   1.764351   0.000000
    46  H    7.660176   6.351448   6.130360   1.762692   1.766889
                   46
    46  H    0.000000
 Stoichiometry    C15H29NO
 Framework group  C1[X(C15H29NO)]
 Deg. of freedom   132
 Full point group                 C1      NOp   1
 Largest Abelian subgroup         C1      NOp   1
 Largest concise Abelian subgroup C1      NOp   1
                         Standard orientation:                         
 ---------------------------------------------------------------------
 Center     Atomic      Atomic             Coordinates (Angstroms)
 Number     Number       Type             X           Y           Z
 ---------------------------------------------------------------------
      1          6           0        4.285924    1.413620   -1.355930
      2          6           0        3.726980    0.020502   -1.113129
      3          6           0        2.750213   -0.106374    0.090349
      4          6           0        2.028030   -1.473617   -0.031912
      5          6           0        0.741140   -1.570480    0.789578
      6          7           0       -0.157489   -0.445285    0.425552
      7          6           0        0.478997    0.770693    0.934400
      8          6           0        1.718185    1.044471    0.080146
      9          6           0       -1.556980   -0.709819    0.857528
     10          6           0       -2.426211    0.470409    1.379022
     11          6           0       -3.128546    1.380942    0.345996
     12          6           0       -3.761434    0.582176   -0.796054
     13          6           0       -2.808791   -0.447198   -1.378703
     14          6           0       -2.340168   -1.420628   -0.298860
     15          8           0       -1.554183   -2.423490   -0.947233
     16          6           0       -2.258280    2.510137   -0.204605
     17          6           0        3.548712   -0.065563    1.411060
     18          1           0        3.505637    2.120039   -1.653653
     19          1           0        5.018912    1.381161   -2.169167
     20          1           0        4.793086    1.806604   -0.470395
     21          1           0        4.561280   -0.680812   -0.982876
     22          1           0        3.216738   -0.283351   -2.036304
     23          1           0        1.761387   -1.657394   -1.081635
     24          1           0        2.705674   -2.287976    0.254675
     25          1           0        0.962010   -1.569821    1.865152
     26          1           0        0.288241   -2.545608    0.583172
     27          1           0        0.729232    0.693850    1.999739
     28          1           0       -0.152985    1.647817    0.836469
     29          1           0        2.180995    1.979043    0.421731
     30          1           0        1.383896    1.224460   -0.951449
     31          1           0       -1.499866   -1.417364    1.697432
     32          1           0       -3.234519    0.004386    1.963438
     33          1           0       -1.879381    1.071157    2.114967
     34          1           0       -3.948293    1.882326    0.879689
     35          1           0       -4.110035    1.254316   -1.589357
     36          1           0       -4.652215    0.064869   -0.417705
     37          1           0       -1.948974    0.040061   -1.855258
     38          1           0       -3.310413   -1.001601   -2.181499
     39          1           0       -3.209229   -1.934162    0.128330
     40          1           0       -0.747425   -1.951675   -1.225899
     41          1           0       -2.861680    3.195353   -0.810845
     42          1           0       -1.827183    3.101873    0.609694
     43          1           0       -1.451921    2.140348   -0.843649
     44          1           0        2.905019   -0.217199    2.283294
     45          1           0        4.316210   -0.847622    1.432388
     46          1           0        4.055063    0.896217    1.545197
 ---------------------------------------------------------------------
 Rotational constants (GHZ):           0.7967354           0.2722169           0.2465724
 Standard basis: 6-31G(d) (6D, 7F)
 There are   313 symmetry adapted cartesian basis functions of A   symmetry.
 There are   313 symmetry adapted basis functions of A   symmetry.
   313 basis functions,   592 primitive gaussians,   313 cartesian basis functions
    67 alpha electrons       67 beta electrons
       nuclear repulsion energy      1388.0103736893 Hartrees.
 NAtoms=   46 NActive=   46 NUniq=   46 SFac= 1.00D+00 NAtFMM=   60 NAOKFM=F Big=F
 Integral buffers will be    131072 words long.
 Raffenetti 2 integral format.
 Two-electron integral symmetry is turned on.
 Nuclear repulsion after empirical dispersion term =     1387.9187400078 Hartrees.
 One-electron integrals computed using PRISM.
 NBasis=   313 RedAO= T EigKep=  2.46D-03  NBF=   313
 NBsUse=   313 1.00D-06 EigRej= -1.00D+00 NBFU=   313
 ExpMin= 1.61D-01 ExpMax= 5.48D+03 ExpMxC= 8.25D+02 IAcc=3 IRadAn=         5 AccDes= 0.00D+00
 Harris functional with IExCor=  402 and IRadAn=       5 diagonalized for initial guess.
 HarFok:  IExCor=  402 AccDes= 0.00D+00 IRadAn=         5 IDoV= 1 UseB2=F ITyADJ=14
 ICtDFT=  3500011 ScaDFX=  1.000000  1.000000  1.000000  1.000000
 FoFCou: FMM=F IPFlag=           0 FMFlag=      100000 FMFlg1=           0
         NFxFlg=           0 DoJE=T BraDBF=F KetDBF=T FulRan=T
         wScrn=  0.000000 ICntrl=       500 IOpCl=  0 I1Cent=   200000004 NGrid=           0
         NMat0=    1 NMatS0=      1 NMatT0=    0 NMatD0=    1 NMtDS0=    0 NMtDT0=    0
 Petite list used in FoFCou.
 Requested convergence on RMS density matrix=1.00D-08 within  32 cycles.
 Requested convergence on MAX density matrix=1.00D-06.
 Requested convergence on             energy=1.00D-06.
 No special actions if energy rises.
 Integral accuracy reduced to 1.0D-05 until final iterations.
 Initial convergence to 1.0D-05 achieved.  Increase integral accuracy.
 SCF Done:  E(RB3LYP) =  -719.114210729     A.U. after   13 cycles
            NFock= 13  Conv=0.75D-08     -V/T= 2.0097
 QCSCF skips out because SCF is already converged.

 **********************************************************************

            Population analysis using the SCF density.

 **********************************************************************

 Orbital symmetries:
       Occupied  (A) (A) (A) (A) (A) (A) (A) (A) (A) (A) (A) (A)
                 (A) (A) (A) (A) (A) (A) (A) (A) (A) (A) (A) (A)
                 (A) (A) (A) (A) (A) (A) (A) (A) (A) (A) (A) (A)
                 (A) (A) (A) (A) (A) (A) (A) (A) (A) (A) (A) (A)
                 (A) (A) (A) (A) (A) (A) (A) (A) (A) (A) (A) (A)
                 (A) (A) (A) (A) (A) (A) (A)
       Virtual   (A) (A) (A) (A) (A) (A) (A) (A) (A) (A) (A) (A)
                 (A) (A) (A) (A) (A) (A) (A) (A) (A) (A) (A) (A)
                 (A) (A) (A) (A) (A) (A) (A) (A) (A) (A) (A) (A)
                 (A) (A) (A) (A) (A) (A) (A) (A) (A) (A) (A) (A)
                 (A) (A) (A) (A) (A) (A) (A) (A) (A) (A) (A) (A)
                 (A) (A) (A) (A) (A) (A) (A) (A) (A) (A) (A) (A)
                 (A) (A) (A) (A) (A) (A) (A) (A) (A) (A) (A) (A)
                 (A) (A) (A) (A) (A) (A) (A) (A) (A) (A) (A) (A)
                 (A) (A) (A) (A) (A) (A) (A) (A) (A) (A) (A) (A)
                 (A) (A) (A) (A) (A) (A) (A) (A) (A) (A) (A) (A)
                 (A) (A) (A) (A) (A) (A) (A) (A) (A) (A) (A) (A)
                 (A) (A) (A) (A) (A) (A) (A) (A) (A) (A) (A) (A)
                 (A) (A) (A) (A) (A) (A) (A) (A) (A) (A) (A) (A)
                 (A) (A) (A) (A) (A) (A) (A) (A) (A) (A) (A) (A)
                 (A) (A) (A) (A) (A) (A) (A) (A) (A) (A) (A) (A)
                 (A) (A) (A) (A) (A) (A) (A) (A) (A) (A) (A) (A)
                 (A) (A) (A) (A) (A) (A) (A) (A) (A) (A) (A) (A)
                 (A) (A) (A) (A) (A) (A) (A) (A) (A) (A) (A) (A)
                 (A) (A) (A) (A) (A) (A) (A) (A) (A) (A) (A) (A)
                 (A) (A) (A) (A) (A) (A) (A) (A) (A) (A) (A) (A)
                 (A) (A) (A) (A) (A) (A)
 The electronic state is 1-A.
 Alpha  occ. eigenvalues --  -19.12729 -14.32495 -10.22202 -10.21057 -10.19975
 Alpha  occ. eigenvalues --  -10.19880 -10.19078 -10.18603 -10.18511 -10.17476
 Alpha  occ. eigenvalues --  -10.17418 -10.17407 -10.17369 -10.17139 -10.16920
 Alpha  occ. eigenvalues --  -10.16868 -10.16742  -1.00374  -0.91699  -0.82918
 Alpha  occ. eigenvalues --   -0.81466  -0.75324  -0.74905  -0.74223  -0.72651
 Alpha  occ. eigenvalues --   -0.68775  -0.66895  -0.63795  -0.62733  -0.59924
 Alpha  occ. eigenvalues --   -0.59325  -0.57671  -0.53991  -0.51827  -0.49677
 Alpha  occ. eigenvalues --   -0.48078  -0.46805  -0.45353  -0.45197  -0.44711
 Alpha  occ. eigenvalues --   -0.44095  -0.43583  -0.42824  -0.41342  -0.40881
 Alpha  occ. eigenvalues --   -0.40680  -0.39077  -0.38842  -0.38286  -0.37700
 Alpha  occ. eigenvalues --   -0.37599  -0.36778  -0.36469  -0.35386  -0.34883
 Alpha  occ. eigenvalues --   -0.34207  -0.33857  -0.33362  -0.32433  -0.31442
 Alpha  occ. eigenvalues --   -0.30705  -0.30490  -0.29843  -0.29447  -0.29026
 Alpha  occ. eigenvalues --   -0.24840  -0.21316
 Alpha virt. eigenvalues --    0.07058   0.07531   0.09365   0.09590   0.10729
 Alpha virt. eigenvalues --    0.11674   0.12486   0.12868   0.13347   0.13546
 Alpha virt. eigenvalues --    0.14343   0.14808   0.15271   0.15537   0.16136
 Alpha virt. eigenvalues --    0.16727   0.17185   0.17633   0.18111   0.18474
 Alpha virt. eigenvalues --    0.18546   0.19237   0.19584   0.20000   0.20307
 Alpha virt. eigenvalues --    0.21146   0.21431   0.22078   0.22630   0.22740
 Alpha virt. eigenvalues --    0.23214   0.23842   0.23981   0.24413   0.25489
 Alpha virt. eigenvalues --    0.25659   0.26594   0.27208   0.28025   0.28504
 Alpha virt. eigenvalues --    0.29262   0.30011   0.30607   0.31522   0.32029
 Alpha virt. eigenvalues --    0.33137   0.34518   0.48846   0.50485   0.51076
 Alpha virt. eigenvalues --    0.51995   0.52953   0.53133   0.54326   0.54680
 Alpha virt. eigenvalues --    0.55363   0.57195   0.57981   0.59185   0.59822
 Alpha virt. eigenvalues --    0.61031   0.61469   0.62115   0.62719   0.63314
 Alpha virt. eigenvalues --    0.65728   0.66366   0.67637   0.68475   0.68967
 Alpha virt. eigenvalues --    0.69772   0.71656   0.72272   0.73242   0.73374
 Alpha virt. eigenvalues --    0.74457   0.75186   0.76123   0.77271   0.78398
 Alpha virt. eigenvalues --    0.79767   0.80561   0.81824   0.82775   0.83236
 Alpha virt. eigenvalues --    0.84421   0.86060   0.86448   0.86693   0.86916
 Alpha virt. eigenvalues --    0.87242   0.87656   0.89192   0.89851   0.90109
 Alpha virt. eigenvalues --    0.90574   0.90733   0.91489   0.91853   0.92204
 Alpha virt. eigenvalues --    0.92871   0.93364   0.93834   0.94149   0.95347
 Alpha virt. eigenvalues --    0.96318   0.96689   0.97934   0.98523   0.98846
 Alpha virt. eigenvalues --    0.99479   0.99924   1.00365   1.01527   1.02180
 Alpha virt. eigenvalues --    1.03281   1.04630   1.05898   1.07158   1.09797
 Alpha virt. eigenvalues --    1.10266   1.14217   1.16335   1.17901   1.19662
 Alpha virt. eigenvalues --    1.20930   1.22742   1.25778   1.30985   1.31574
 Alpha virt. eigenvalues --    1.33861   1.35626   1.36621   1.37797   1.40905
 Alpha virt. eigenvalues --    1.42279   1.43891   1.48688   1.52013   1.53621
 Alpha virt. eigenvalues --    1.55542   1.58655   1.59618   1.61920   1.63973
 Alpha virt. eigenvalues --    1.66281   1.67145   1.68699   1.70286   1.71897
 Alpha virt. eigenvalues --    1.72303   1.74498   1.74980   1.77330   1.78541
 Alpha virt. eigenvalues --    1.80269   1.82631   1.84599   1.85991   1.86174
 Alpha virt. eigenvalues --    1.87488   1.90241   1.90915   1.92675   1.93674
 Alpha virt. eigenvalues --    1.94115   1.95112   1.96461   1.97763   1.98530
 Alpha virt. eigenvalues --    1.99577   2.00354   2.01859   2.02507   2.03154
 Alpha virt. eigenvalues --    2.04640   2.05670   2.07109   2.08807   2.09309
 Alpha virt. eigenvalues --    2.10009   2.11715   2.12696   2.15478   2.15818
 Alpha virt. eigenvalues --    2.17871   2.19446   2.19937   2.22845   2.26682
 Alpha virt. eigenvalues --    2.26889   2.27449   2.29016   2.30264   2.30619
 Alpha virt. eigenvalues --    2.31611   2.33325   2.34119   2.35274   2.37695
 Alpha virt. eigenvalues --    2.38621   2.38988   2.40556   2.40992   2.45543
 Alpha virt. eigenvalues --    2.47155   2.48353   2.49716   2.50151   2.53481
 Alpha virt. eigenvalues --    2.55669   2.56250   2.59302   2.61171   2.62856
 Alpha virt. eigenvalues --    2.65381   2.68791   2.73005   2.73302   2.74700
 Alpha virt. eigenvalues --    2.75440   2.76400   2.79997   2.81029   2.82488
 Alpha virt. eigenvalues --    2.85947   2.92781   2.95874   2.99071   3.90067
 Alpha virt. eigenvalues --    4.09634   4.14159   4.15405   4.24570   4.26446
 Alpha virt. eigenvalues --    4.27518   4.32552   4.36765   4.41196   4.45104
 Alpha virt. eigenvalues --    4.53440   4.58804   4.62841   4.64777   4.69834
 Alpha virt. eigenvalues --    4.76383
          Condensed to atoms (all electrons):
               1          2          3          4          5          6
     1  C    5.085275   0.365724  -0.038103   0.004523  -0.000164   0.000005
     2  C    0.365724   5.044591   0.392266  -0.053106   0.004239  -0.000215
     3  C   -0.038103   0.392266   4.760919   0.387762  -0.022057  -0.020552
     4  C    0.004523  -0.053106   0.387762   5.115484   0.350751  -0.042089
     5  C   -0.000164   0.004239  -0.022057   0.350751   5.040326   0.271349
     6  N    0.000005  -0.000215  -0.020552  -0.042089   0.271349   6.990896
     7  C    0.000332   0.004573  -0.020814  -0.015989  -0.042810   0.299531
     8  C   -0.007775  -0.049973   0.393879  -0.055138  -0.014329  -0.051588
     9  C   -0.000000   0.000010   0.000687   0.004390  -0.029414   0.261562
    10  C    0.000000  -0.000000  -0.000012  -0.000167   0.003770  -0.030942
    11  C   -0.000000   0.000000  -0.000003   0.000004  -0.000082   0.000435
    12  C   -0.000000   0.000000   0.000000   0.000001  -0.000027  -0.000279
    13  C    0.000000   0.000000   0.000001   0.000015   0.000065  -0.006604
    14  C   -0.000000   0.000000   0.000003  -0.000071  -0.001294  -0.053128
    15  O   -0.000000   0.000000   0.000014  -0.001007  -0.003848  -0.010871
    16  C    0.000000  -0.000000   0.000007  -0.000000  -0.000009   0.000578
    17  C   -0.004518  -0.054569   0.376457  -0.059220  -0.002399  -0.000443
    18  H    0.378708  -0.033070  -0.007618   0.000078   0.000002  -0.000005
    19  H    0.371001  -0.027968   0.004469  -0.000118   0.000002   0.000000
    20  H    0.376929  -0.037391  -0.004578   0.000082   0.000002  -0.000000
    21  H   -0.040252   0.367703  -0.033997  -0.002056  -0.000048   0.000001
    22  H   -0.042363   0.366775  -0.033486  -0.009265   0.000231  -0.000020
    23  H    0.000241  -0.009681  -0.037909   0.360969  -0.042017   0.000045
    24  H   -0.000099  -0.002643  -0.035146   0.352772  -0.030904   0.004565
    25  H    0.000003  -0.000082  -0.010524  -0.040582   0.342626  -0.046097
    26  H    0.000002  -0.000112   0.003937  -0.029321   0.365194  -0.036779
    27  H   -0.000012  -0.000080  -0.011369   0.000728  -0.014218  -0.045875
    28  H    0.000004  -0.000135   0.004346   0.000066   0.006331  -0.034902
    29  H    0.002645  -0.005472  -0.032809   0.006156  -0.000408   0.005109
    30  H   -0.002047  -0.006328  -0.040100  -0.001780  -0.000658   0.002768
    31  H    0.000000  -0.000001  -0.000144   0.000463  -0.012964  -0.052213
    32  H   -0.000000  -0.000000   0.000000   0.000002  -0.000132   0.003829
    33  H    0.000000  -0.000000  -0.000002  -0.000008   0.000016  -0.005652
    34  H    0.000000  -0.000000   0.000000  -0.000000   0.000001  -0.000052
    35  H    0.000000  -0.000000   0.000000  -0.000000   0.000000  -0.000008
    36  H    0.000000   0.000000   0.000000   0.000000   0.000000   0.000026
    37  H    0.000000  -0.000000  -0.000017   0.000011  -0.000165   0.009379
    38  H   -0.000000   0.000000  -0.000000  -0.000000  -0.000011  -0.000021
    39  H   -0.000000   0.000000  -0.000000  -0.000000  -0.000161   0.004491
    40  H    0.000000  -0.000016  -0.000207  -0.000385   0.000028   0.028747
    41  H   -0.000000  -0.000000   0.000000   0.000000   0.000000  -0.000001
    42  H   -0.000000   0.000000  -0.000001   0.000000  -0.000004   0.000083
    43  H    0.000000  -0.000001  -0.000015  -0.000001  -0.000010   0.001043
    44  H    0.000011   0.005307  -0.030343  -0.005417   0.001562  -0.000155
    45  H    0.000001  -0.006352  -0.027984  -0.005116  -0.000063   0.000012
    46  H    0.001324  -0.005199  -0.029030   0.005591  -0.000102   0.000016
               7          8          9         10         11         12
     1  C    0.000332  -0.007775  -0.000000   0.000000  -0.000000  -0.000000
     2  C    0.004573  -0.049973   0.000010  -0.000000   0.000000   0.000000
     3  C   -0.020814   0.393879   0.000687  -0.000012  -0.000003   0.000000
     4  C   -0.015989  -0.055138   0.004390  -0.000167   0.000004   0.000001
     5  C   -0.042810  -0.014329  -0.029414   0.003770  -0.000082  -0.000027
     6  N    0.299531  -0.051588   0.261562  -0.030942   0.000435  -0.000279
     7  C    4.972888   0.362741  -0.039302  -0.004128  -0.001486  -0.000023
     8  C    0.362741   5.110764   0.005299   0.000382  -0.000022   0.000007
     9  C   -0.039302   0.005299   4.989122   0.332611  -0.029347  -0.006159
    10  C   -0.004128   0.000382   0.332611   5.142835   0.373540  -0.051592
    11  C   -0.001486  -0.000022  -0.029347   0.373540   4.871580   0.383090
    12  C   -0.000023   0.000007  -0.006159  -0.051592   0.383090   5.094911
    13  C    0.000115  -0.000021  -0.045288  -0.013193  -0.037933   0.318811
    14  C    0.004384  -0.000166   0.343400  -0.035857  -0.017994  -0.034908
    15  O    0.000347  -0.000002  -0.040008   0.002092   0.000133   0.004215
    16  C   -0.004257  -0.000163  -0.001642  -0.049333   0.380634  -0.054738
    17  C   -0.002811  -0.065995  -0.000024   0.000000   0.000000  -0.000000
    18  H   -0.000001   0.005125   0.000000   0.000000  -0.000000   0.000000
    19  H   -0.000005   0.000199  -0.000000  -0.000000   0.000000  -0.000000
    20  H   -0.000033  -0.001648  -0.000000  -0.000000   0.000000  -0.000000
    21  H   -0.000137   0.005753  -0.000000   0.000000  -0.000000   0.000000
    22  H   -0.000041  -0.004715  -0.000000  -0.000000   0.000000  -0.000000
    23  H   -0.000251  -0.002240  -0.000308  -0.000003   0.000001  -0.000001
    24  H   -0.000404   0.006126  -0.000161   0.000003  -0.000000  -0.000000
    25  H   -0.013247   0.000053  -0.007770   0.000142   0.000011  -0.000002
    26  H    0.005399   0.000108  -0.001008   0.000207  -0.000004  -0.000016
    27  H    0.348771  -0.044913  -0.004142  -0.000383   0.000340  -0.000008
    28  H    0.369017  -0.028847  -0.006847   0.002621  -0.004369   0.000072
    29  H   -0.036001   0.352821  -0.000208   0.000008   0.000002  -0.000000
    30  H   -0.037893   0.360320  -0.000107  -0.000048   0.000032  -0.000006
    31  H   -0.000918  -0.000188   0.349568  -0.040916   0.005033  -0.000178
    32  H    0.000211  -0.000006  -0.031743   0.360345  -0.038623  -0.001596
    33  H    0.002401   0.000010  -0.030206   0.359348  -0.033115   0.005117
    34  H   -0.000048   0.000001   0.004627  -0.042189   0.376808  -0.043435
    35  H    0.000000  -0.000000  -0.000056   0.005199  -0.035174   0.361442
    36  H    0.000002   0.000000  -0.000770  -0.001438  -0.037476   0.368795
    37  H   -0.000383  -0.000043  -0.009995   0.000382  -0.004750  -0.036614
    38  H    0.000001  -0.000000   0.005434   0.000231   0.004781  -0.028877
    39  H   -0.000127   0.000003  -0.047886   0.000669  -0.000055  -0.001448
    40  H   -0.000560   0.000021  -0.016321   0.000075   0.000050   0.000046
    41  H    0.000276  -0.000008  -0.000124   0.005160  -0.029078  -0.005089
    42  H   -0.002650   0.000055  -0.000125  -0.005005  -0.029689   0.005519
    43  H   -0.002862   0.000045   0.002125  -0.004657  -0.033040  -0.006077
    44  H    0.001463  -0.004251  -0.000005   0.000002   0.000000  -0.000000
    45  H   -0.000076   0.005756  -0.000000   0.000000  -0.000000  -0.000000
    46  H   -0.000162  -0.005580  -0.000000   0.000000   0.000000   0.000000
              13         14         15         16         17         18
     1  C    0.000000  -0.000000  -0.000000   0.000000  -0.004518   0.378708
     2  C    0.000000   0.000000   0.000000  -0.000000  -0.054569  -0.033070
     3  C    0.000001   0.000003   0.000014   0.000007   0.376457  -0.007618
     4  C    0.000015  -0.000071  -0.001007  -0.000000  -0.059220   0.000078
     5  C    0.000065  -0.001294  -0.003848  -0.000009  -0.002399   0.000002
     6  N   -0.006604  -0.053128  -0.010871   0.000578  -0.000443  -0.000005
     7  C    0.000115   0.004384   0.000347  -0.004257  -0.002811  -0.000001
     8  C   -0.000021  -0.000166  -0.000002  -0.000163  -0.065995   0.005125
     9  C   -0.045288   0.343400  -0.040008  -0.001642  -0.000024   0.000000
    10  C   -0.013193  -0.035857   0.002092  -0.049333   0.000000   0.000000
    11  C   -0.037933  -0.017994   0.000133   0.380634   0.000000  -0.000000
    12  C    0.318811  -0.034908   0.004215  -0.054738  -0.000000   0.000000
    13  C    5.135124   0.374932  -0.052868  -0.005013  -0.000000  -0.000000
    14  C    0.374932   4.797351   0.262404  -0.000288   0.000000   0.000000
    15  O   -0.052868   0.262404   8.276293  -0.000001  -0.000000  -0.000000
    16  C   -0.005013  -0.000288  -0.000001   5.131525  -0.000000  -0.000000
    17  C   -0.000000   0.000000  -0.000000  -0.000000   5.182028   0.000004
    18  H   -0.000000   0.000000  -0.000000  -0.000000   0.000004   0.571189
    19  H   -0.000000   0.000000   0.000000   0.000000  -0.000013  -0.032096
    20  H   -0.000000   0.000000   0.000000  -0.000000   0.002669  -0.031541
    21  H    0.000000  -0.000000  -0.000000  -0.000000  -0.008899   0.005366
    22  H   -0.000000   0.000000  -0.000000  -0.000000   0.006144  -0.005632
    23  H   -0.000032   0.000070   0.000336  -0.000000   0.006282  -0.000015
    24  H    0.000000  -0.000009  -0.000014  -0.000000  -0.009148  -0.000001
    25  H    0.000009  -0.000255   0.000423  -0.000002   0.001606  -0.000000
    26  H    0.000443  -0.000500   0.018566   0.000001  -0.000013   0.000000
    27  H    0.000004  -0.000308  -0.000016  -0.000002   0.001793   0.000003
    28  H    0.000030   0.000263   0.000009   0.007204  -0.000003   0.000009
    29  H    0.000000   0.000001  -0.000000  -0.000003  -0.009099   0.000019
    30  H   -0.000045  -0.000009  -0.000013  -0.000058   0.006458   0.002308
    31  H    0.006507  -0.051510   0.000159  -0.000083  -0.000002  -0.000000
    32  H   -0.001132  -0.000571   0.000004   0.006158  -0.000000   0.000000
    33  H   -0.000051   0.003327  -0.000051  -0.007382  -0.000000   0.000000
    34  H    0.005451   0.000355   0.000002  -0.050477  -0.000000  -0.000000
    35  H   -0.027521   0.004103  -0.000092  -0.008124   0.000000  -0.000000
    36  H   -0.043540  -0.005760   0.000052   0.006437  -0.000000  -0.000000
    37  H    0.362390  -0.035738  -0.001824   0.002007   0.000000  -0.000000
    38  H    0.365091  -0.030466   0.002886   0.000046   0.000000   0.000000
    39  H   -0.053726   0.367736  -0.037190   0.000067  -0.000000  -0.000000
    40  H   -0.006034  -0.032143   0.222565  -0.000016   0.000003  -0.000000
    41  H   -0.000215  -0.000007  -0.000000   0.364670  -0.000000   0.000000
    42  H   -0.000034   0.000008  -0.000000   0.366780  -0.000000   0.000000
    43  H    0.002758  -0.000167  -0.000003   0.373397   0.000001  -0.000001
    44  H    0.000000  -0.000000  -0.000000  -0.000000   0.367377  -0.000007
    45  H    0.000000  -0.000000   0.000000   0.000000   0.363819   0.000012
    46  H   -0.000000  -0.000000   0.000000   0.000000   0.365627   0.000070
              19         20         21         22         23         24
     1  C    0.371001   0.376929  -0.040252  -0.042363   0.000241  -0.000099
     2  C   -0.027968  -0.037391   0.367703   0.366775  -0.009681  -0.002643
     3  C    0.004469  -0.004578  -0.033997  -0.033486  -0.037909  -0.035146
     4  C   -0.000118   0.000082  -0.002056  -0.009265   0.360969   0.352772
     5  C    0.000002   0.000002  -0.000048   0.000231  -0.042017  -0.030904
     6  N    0.000000  -0.000000   0.000001  -0.000020   0.000045   0.004565
     7  C   -0.000005  -0.000033  -0.000137  -0.000041  -0.000251  -0.000404
     8  C    0.000199  -0.001648   0.005753  -0.004715  -0.002240   0.006126
     9  C   -0.000000  -0.000000  -0.000000  -0.000000  -0.000308  -0.000161
    10  C   -0.000000  -0.000000   0.000000  -0.000000  -0.000003   0.000003
    11  C    0.000000   0.000000  -0.000000   0.000000   0.000001  -0.000000
    12  C   -0.000000  -0.000000   0.000000  -0.000000  -0.000001  -0.000000
    13  C   -0.000000  -0.000000   0.000000  -0.000000  -0.000032   0.000000
    14  C    0.000000   0.000000  -0.000000   0.000000   0.000070  -0.000009
    15  O    0.000000   0.000000  -0.000000  -0.000000   0.000336  -0.000014
    16  C    0.000000  -0.000000  -0.000000  -0.000000  -0.000000  -0.000000
    17  C   -0.000013   0.002669  -0.008899   0.006144   0.006282  -0.009148
    18  H   -0.032096  -0.031541   0.005366  -0.005632  -0.000015  -0.000001
    19  H    0.582071  -0.030833  -0.004218  -0.002782  -0.000014   0.000002
    20  H   -0.030833   0.576777  -0.003552   0.005766   0.000008   0.000001
    21  H   -0.004218  -0.003552   0.616402  -0.037848  -0.000097   0.002714
    22  H   -0.002782   0.005766  -0.037848   0.617308   0.008784  -0.000190
    23  H   -0.000014   0.000008  -0.000097   0.008784   0.617302  -0.034903
    24  H    0.000002   0.000001   0.002714  -0.000190  -0.034903   0.614784
    25  H   -0.000000  -0.000000   0.000005   0.000001   0.006613   0.000151
    26  H   -0.000000   0.000000   0.000001  -0.000015  -0.006014  -0.002146
    27  H    0.000000   0.000001   0.000003   0.000001   0.000186   0.000120
    28  H   -0.000000  -0.000000   0.000003  -0.000000  -0.000017   0.000012
    29  H    0.000015   0.000532  -0.000122  -0.000150  -0.000113  -0.000122
    30  H   -0.000070   0.000278   0.000039   0.004129   0.002256  -0.000092
    31  H    0.000000  -0.000000   0.000000  -0.000000   0.000070   0.000034
    32  H   -0.000000   0.000000   0.000000  -0.000000  -0.000000  -0.000000
    33  H   -0.000000   0.000000   0.000000   0.000000  -0.000000   0.000000
    34  H   -0.000000  -0.000000   0.000000  -0.000000   0.000000   0.000000
    35  H    0.000000   0.000000   0.000000  -0.000000   0.000000  -0.000000
    36  H   -0.000000  -0.000000  -0.000000  -0.000000  -0.000000  -0.000000
    37  H   -0.000000   0.000000   0.000000   0.000000   0.000050   0.000001
    38  H    0.000000   0.000000   0.000000   0.000000  -0.000000   0.000000
    39  H   -0.000000  -0.000000   0.000000  -0.000000   0.000003   0.000000
    40  H   -0.000000  -0.000000   0.000000  -0.000002   0.004209   0.000055
    41  H    0.000000   0.000000   0.000000   0.000000   0.000000   0.000000
    42  H    0.000000   0.000000  -0.000000  -0.000000   0.000000   0.000000
    43  H    0.000000   0.000000  -0.000000  -0.000000   0.000002   0.000000
    44  H    0.000002  -0.000160   0.000040  -0.000187  -0.000003   0.000038
    45  H   -0.000022   0.000059   0.005812   0.000016   0.000027   0.005450
    46  H   -0.000103   0.003880   0.000006  -0.000039  -0.000186   0.000127
              25         26         27         28         29         30
     1  C    0.000003   0.000002  -0.000012   0.000004   0.002645  -0.002047
     2  C   -0.000082  -0.000112  -0.000080  -0.000135  -0.005472  -0.006328
     3  C   -0.010524   0.003937  -0.011369   0.004346  -0.032809  -0.040100
     4  C   -0.040582  -0.029321   0.000728   0.000066   0.006156  -0.001780
     5  C    0.342626   0.365194  -0.014218   0.006331  -0.000408  -0.000658
     6  N   -0.046097  -0.036779  -0.045875  -0.034902   0.005109   0.002768
     7  C   -0.013247   0.005399   0.348771   0.369017  -0.036001  -0.037893
     8  C    0.000053   0.000108  -0.044913  -0.028847   0.352821   0.360320
     9  C   -0.007770  -0.001008  -0.004142  -0.006847  -0.000208  -0.000107
    10  C    0.000142   0.000207  -0.000383   0.002621   0.000008  -0.000048
    11  C    0.000011  -0.000004   0.000340  -0.004369   0.000002   0.000032
    12  C   -0.000002  -0.000016  -0.000008   0.000072  -0.000000  -0.000006
    13  C    0.000009   0.000443   0.000004   0.000030   0.000000  -0.000045
    14  C   -0.000255  -0.000500  -0.000308   0.000263   0.000001  -0.000009
    15  O    0.000423   0.018566  -0.000016   0.000009  -0.000000  -0.000013
    16  C   -0.000002   0.000001  -0.000002   0.007204  -0.000003  -0.000058
    17  C    0.001606  -0.000013   0.001793  -0.000003  -0.009099   0.006458
    18  H   -0.000000   0.000000   0.000003   0.000009   0.000019   0.002308
    19  H   -0.000000  -0.000000   0.000000  -0.000000   0.000015  -0.000070
    20  H   -0.000000   0.000000   0.000001  -0.000000   0.000532   0.000278
    21  H    0.000005   0.000001   0.000003   0.000003  -0.000122   0.000039
    22  H    0.000001  -0.000015   0.000001  -0.000000  -0.000150   0.004129
    23  H    0.006613  -0.006014   0.000186  -0.000017  -0.000113   0.002256
    24  H    0.000151  -0.002146   0.000120   0.000012  -0.000122  -0.000092
    25  H    0.653787  -0.039268   0.016366  -0.000061   0.000111   0.000246
[...]
   439    H   27  S      Ryd( 2S)     0.00068       0.60617
   440    H   27  S      Ryd( 4S)     0.00051       1.90503
   441    H   27  S      Ryd( 3S)     0.00001       1.05830
   442    H   27  px     Ryd( 2p)     0.00008       2.12914
   443    H   27  py     Ryd( 2p)     0.00005       2.05678
   444    H   27  pz     Ryd( 2p)     0.00017       2.83933
 
   445    H   28  S      Val( 1S)     0.39326       0.15618
   446    H   28  S      Ryd( 3S)     0.00126       0.85327
   447    H   28  S      Ryd( 4S)     0.00054       2.04141
   448    H   28  S      Ryd( 2S)     0.00001       0.67276
   449    H   28  px     Ryd( 2p)     0.00012       2.34071
   450    H   28  py     Ryd( 2p)     0.00013       2.53931
   451    H   28  pz     Ryd( 2p)     0.00009       2.05970
 
   452    H   29  S      Val( 1S)     0.39675       0.14109
   453    H   29  S      Ryd( 2S)     0.00044       0.55942
   454    H   29  S      Ryd( 4S)     0.00034       1.64172
   455    H   29  S      Ryd( 3S)     0.00002       1.22054
   456    H   29  px     Ryd( 2p)     0.00008       2.14604
   457    H   29  py     Ryd( 2p)     0.00013       2.70106
   458    H   29  pz     Ryd( 2p)     0.00007       2.06065
 
   459    H   30  S      Val( 1S)     0.39951       0.13998
   460    H   30  S      Ryd( 2S)     0.00073       0.62734
   461    H   30  S      Ryd( 4S)     0.00049       2.11556
   462    H   30  S      Ryd( 3S)     0.00001       0.87057
   463    H   30  px     Ryd( 2p)     0.00008       2.03691
   464    H   30  py     Ryd( 2p)     0.00006       2.06004
   465    H   30  pz     Ryd( 2p)     0.00013       2.80161
 
   466    H   31  S      Val( 1S)     0.40887       0.13494
   467    H   31  S      Ryd( 2S)     0.00044       0.59315
   468    H   31  S      Ryd( 3S)     0.00076       1.54345
   469    H   31  S      Ryd( 4S)     0.00008       2.87992
   470    H   31  px     Ryd( 2p)     0.00006       2.07534
   471    H   31  py     Ryd( 2p)     0.00013       2.36233
   472    H   31  pz     Ryd( 2p)     0.00016       2.61449
 
   473    H   32  S      Val( 1S)     0.39307       0.13918
   474    H   32  S      Ryd( 2S)     0.00079       0.47403
   475    H   32  S      Ryd( 4S)     0.00035       1.77786
   476    H   32  S      Ryd( 3S)     0.00002       1.13450
   477    H   32  px     Ryd( 2p)     0.00010       2.39606
   478    H   32  py     Ryd( 2p)     0.00008       2.08563
   479    H   32  pz     Ryd( 2p)     0.00011       2.42737
 
   480    H   33  S      Val( 1S)     0.39250       0.14376
   481    H   33  S      Ryd( 2S)     0.00078       0.53518
   482    H   33  S      Ryd( 4S)     0.00035       1.73360
   483    H   33  S      Ryd( 3S)     0.00001       1.17343
   484    H   33  px     Ryd( 2p)     0.00008       2.25468
   485    H   33  py     Ryd( 2p)     0.00009       2.27227
   486    H   33  pz     Ryd( 2p)     0.00010       2.31636
 
   487    H   34  S      Val( 1S)     0.39802       0.14444
   488    H   34  S      Ryd( 2S)     0.00132       0.40456
   489    H   34  S      Ryd( 3S)     0.00073       1.33621
   490    H   34  S      Ryd( 4S)     0.00004       2.63057
   491    H   34  px     Ryd( 2p)     0.00013       2.39942
   492    H   34  py     Ryd( 2p)     0.00010       2.34176
   493    H   34  pz     Ryd( 2p)     0.00012       2.26497
 
   494    H   35  S      Val( 1S)     0.39949       0.13940
   495    H   35  S      Ryd( 2S)     0.00025       0.45086
   496    H   35  S      Ryd( 4S)     0.00039       1.64315
   497    H   35  S      Ryd( 3S)     0.00001       1.20714
   498    H   35  px     Ryd( 2p)     0.00008       2.22351
   499    H   35  py     Ryd( 2p)     0.00008       2.19340
   500    H   35  pz     Ryd( 2p)     0.00011       2.34073
 
   501    H   36  S      Val( 1S)     0.40160       0.13397
   502    H   36  S      Ryd( 2S)     0.00065       0.45193
   503    H   36  S      Ryd( 4S)     0.00043       1.80519
   504    H   36  S      Ryd( 3S)     0.00001       1.11847
   505    H   36  px     Ryd( 2p)     0.00012       2.54368
   506    H   36  py     Ryd( 2p)     0.00008       2.09158
   507    H   36  pz     Ryd( 2p)     0.00008       2.15905
 
   508    H   37  S      Val( 1S)     0.40243       0.13300
   509    H   37  S      Ryd( 2S)     0.00081       0.46531
   510    H   37  S      Ryd( 4S)     0.00049       2.24505
   511    H   37  S      Ryd( 3S)     0.00002       0.82875
   512    H   37  px     Ryd( 2p)     0.00012       2.37596
   513    H   37  py     Ryd( 2p)     0.00009       2.13939
   514    H   37  pz     Ryd( 2p)     0.00010       2.33903
 
   515    H   38  S      Val( 1S)     0.39690       0.14298
   516    H   38  S      Ryd( 2S)     0.00019       0.49417
   517    H   38  S      Ryd( 4S)     0.00044       1.52846
   518    H   38  S      Ryd( 3S)     0.00003       1.30274
   519    H   38  px     Ryd( 2p)     0.00007       2.21022
   520    H   38  py     Ryd( 2p)     0.00011       2.22409
   521    H   38  pz     Ryd( 2p)     0.00010       2.31470
 
   522    H   39  S      Val( 1S)     0.41310       0.12168
   523    H   39  S      Ryd( 2S)     0.00035       0.41106
   524    H   39  S      Ryd( 4S)     0.00043       1.63667
   525    H   39  S      Ryd( 3S)     0.00005       1.34899
   526    H   39  px     Ryd( 2p)     0.00013       2.50720
   527    H   39  py     Ryd( 2p)     0.00010       2.32008
   528    H   39  pz     Ryd( 2p)     0.00011       2.19076
 
   529    H   40  S      Val( 1S)     0.26744       0.20238
   530    H   40  S      Ryd( 2S)     0.00075       0.48959
   531    H   40  S      Ryd( 4S)     0.00063       2.43643
   532    H   40  S      Ryd( 3S)     0.00003       0.72524
   533    H   40  px     Ryd( 2p)     0.00055       2.40726
   534    H   40  py     Ryd( 2p)     0.00051       2.06455
   535    H   40  pz     Ryd( 2p)     0.00058       2.09732
 
   536    H   41  S      Val( 1S)     0.39821       0.13731
   537    H   41  S      Ryd( 2S)     0.00046       0.48523
   538    H   41  S      Ryd( 4S)     0.00028       1.52419
   539    H   41  S      Ryd( 3S)     0.00002       1.22845
   540    H   41  px     Ryd( 2p)     0.00009       2.18912
   541    H   41  py     Ryd( 2p)     0.00008       2.22438
   542    H   41  pz     Ryd( 2p)     0.00009       2.18015
 
   543    H   42  S      Val( 1S)     0.39820       0.13481
   544    H   42  S      Ryd( 2S)     0.00064       0.51519
   545    H   42  S      Ryd( 4S)     0.00026       1.60736
   546    H   42  S      Ryd( 3S)     0.00001       1.25337
   547    H   42  px     Ryd( 2p)     0.00008       2.11608
   548    H   42  py     Ryd( 2p)     0.00010       2.32347
   549    H   42  pz     Ryd( 2p)     0.00009       2.18217
 
   550    H   43  S      Val( 1S)     0.40200       0.13429
   551    H   43  S      Ryd( 2S)     0.00063       0.60004
   552    H   43  S      Ryd( 4S)     0.00030       1.97700
   553    H   43  S      Ryd( 3S)     0.00002       0.90999
   554    H   43  px     Ryd( 2p)     0.00010       2.36090
   555    H   43  py     Ryd( 2p)     0.00007       2.07269
   556    H   43  pz     Ryd( 2p)     0.00010       2.35361
 
   557    H   44  S      Val( 1S)     0.39759       0.13783
   558    H   44  S      Ryd( 2S)     0.00046       0.74396
   559    H   44  S      Ryd( 4S)     0.00032       1.58630
   560    H   44  S      Ryd( 3S)     0.00001       0.93391
   561    H   44  px     Ryd( 2p)     0.00009       2.33449
   562    H   44  py     Ryd( 2p)     0.00007       1.99501
   563    H   44  pz     Ryd( 2p)     0.00010       2.44602
 
   564    H   45  S      Val( 1S)     0.40021       0.13128
   565    H   45  S      Ryd( 2S)     0.00039       0.46723
   566    H   45  S      Ryd( 4S)     0.00029       1.59831
   567    H   45  S      Ryd( 3S)     0.00001       1.14536
   568    H   45  px     Ryd( 2p)     0.00010       2.38090
   569    H   45  py     Ryd( 2p)     0.00009       2.34972
   570    H   45  pz     Ryd( 2p)     0.00007       1.92169
 
   571    H   46  S      Val( 1S)     0.39730       0.13681
   572    H   46  S      Ryd( 2S)     0.00045       0.51236
   573    H   46  S      Ryd( 4S)     0.00026       1.59702
   574    H   46  S      Ryd( 3S)     0.00001       1.12080
   575    H   46  px     Ryd( 2p)     0.00008       2.11823
   576    H   46  py     Ryd( 2p)     0.00012       2.62831
   577    H   46  pz     Ryd( 2p)     0.00006       1.95327

 WARNING:  Population inversion found on atom  C    1
           Population inversion found on atom  C    2
           Population inversion found on atom  C    3
           Population inversion found on atom  C    4
           Population inversion found on atom  N    6
           Population inversion found on atom  C    7
           Population inversion found on atom  C    8
           Population inversion found on atom  C    9
           Population inversion found on atom  C   10
           Population inversion found on atom  C   12
           Population inversion found on atom  C   13
           Population inversion found on atom  C   14
           Population inversion found on atom  O   15
           Population inversion found on atom  C   17
           Population inversion found on atom  H   18
           Population inversion found on atom  H   19
           Population inversion found on atom  H   20
           Population inversion found on atom  H   21
           Population inversion found on atom  H   22
           Population inversion found on atom  H   23
           Population inversion found on atom  H   24
           Population inversion found on atom  H   25
           Population inversion found on atom  H   26
           Population inversion found on atom  H   27
           Population inversion found on atom  H   28
           Population inversion found on atom  H   29
           Population inversion found on atom  H   30
           Population inversion found on atom  H   31
           Population inversion found on atom  H   32
           Population inversion found on atom  H   33
           Population inversion found on atom  H   35
           Population inversion found on atom  H   36
           Population inversion found on atom  H   37
           Population inversion found on atom  H   38
           Population inversion found on atom  H   39
           Population inversion found on atom  H   40
           Population inversion found on atom  H   41
           Population inversion found on atom  H   42
           Population inversion found on atom  H   43
           Population inversion found on atom  H   44
           Population inversion found on atom  H   45
           Population inversion found on atom  H   46


 Summary of Natural Population Analysis:                  
                                                          
                                       Natural Population 
                Natural  -----------------------------------------------
    Atom  No    Charge         Core      Valence    Rydberg      Total
 -----------------------------------------------------------------------
      C    1   -0.28763      0.99966     2.28292    0.00505     3.28763
      C    2   -0.18456      0.99960     2.17463    0.01033     3.18456
      C    3   -0.04172      0.99955     2.03003    0.01213     3.04172
      C    4   -0.18979      0.99958     2.18148    0.00872     3.18979
      C    5   -0.09076      0.99961     2.08079    0.01036     3.09076
      N    6   -0.29610      0.99969     2.78475    0.01166     3.79610
      C    7   -0.08742      0.99960     2.07681    0.01101     3.08742
      C    8   -0.19093      0.99958     2.18067    0.01068     3.19093
      C    9   -0.00752      0.99955     1.99466    0.01330     3.00752
      C   10   -0.19668      0.99959     2.18668    0.01041     3.19668
      C   11   -0.11134      0.99959     2.10010    0.01165     3.11134
      C   12   -0.18903      0.99961     2.17968    0.00974     3.18903
      C   13   -0.20483      0.99960     2.19544    0.00979     3.20483
      C   14    0.06495      0.99951     1.92047    0.01507     2.93505
      O   15   -0.37385      0.99990     3.36774    0.00622     4.37385
      C   16   -0.28962      0.99964     2.28325    0.00673     3.28962
      C   17   -0.29021      0.99962     2.28291    0.00768     3.29021
      H   18    0.09805      0.00000     0.40089    0.00105     0.40195
      H   19    0.09914      0.00000     0.40002    0.00084     0.40086
      H   20    0.09781      0.00000     0.40114    0.00106     0.40219
      H   21    0.09480      0.00000     0.40419    0.00101     0.40520
      H   22    0.09472      0.00000     0.40410    0.00119     0.40528
      H   23    0.09682      0.00000     0.40173    0.00145     0.40318
      H   24    0.10000      0.00000     0.39911    0.00089     0.40000
      H   25    0.08147      0.00000     0.41712    0.00141     0.41853
      H   26    0.10774      0.00000     0.39107    0.00119     0.39226
      H   27    0.08012      0.00000     0.41838    0.00150     0.41988
      H   28    0.10461      0.00000     0.39326    0.00214     0.39539
      H   29    0.10218      0.00000     0.39675    0.00108     0.39782
      H   30    0.09899      0.00000     0.39951    0.00150     0.40101
      H   31    0.08950      0.00000     0.40887    0.00163     0.41050
      H   32    0.10549      0.00000     0.39307    0.00144     0.39451
      H   33    0.10610      0.00000     0.39250    0.00141     0.39390
      H   34    0.09953      0.00000     0.39802    0.00245     0.40047
      H   35    0.09958      0.00000     0.39949    0.00092     0.40042
      H   36    0.09703      0.00000     0.40160    0.00137     0.40297
      H   37    0.09594      0.00000     0.40243    0.00163     0.40406
      H   38    0.10214      0.00000     0.39690    0.00095     0.39786
      H   39    0.08572      0.00000     0.41310    0.00118     0.41428
      H   40    0.22950      0.00000     0.26744    0.00306     0.27050
      H   41    0.10078      0.00000     0.39821    0.00101     0.39922
      H   42    0.10061      0.00000     0.39820    0.00118     0.39939
      H   43    0.09678      0.00000     0.40200    0.00121     0.40322
      H   44    0.10135      0.00000     0.39759    0.00106     0.39865
      H   45    0.09884      0.00000     0.40021    0.00095     0.40116
      H   46    0.10171      0.00000     0.39730    0.00099     0.39829
 =======================================================================
   * Total *   -0.00000     16.99349    49.79721    0.20930    67.00000

                                 Natural Population      
 --------------------------------------------------------
   Core                      16.99349 ( 99.9617% of  17)
   Valence                   49.79721 ( 99.5944% of  50)
   Natural Minimal Basis     66.79070 ( 99.6876% of  67)
   Natural Rydberg Basis      0.20930 (  0.3124% of  67)
 --------------------------------------------------------

    Atom  No          Natural Electron Configuration
 ----------------------------------------------------------------------------
      C    1      [core]2S( 0.54)2p( 1.74)
      C    2      [core]2S( 0.50)2p( 1.67)3p( 0.01)
      C    3      [core]2S( 0.46)2p( 1.57)3p( 0.01)
      C    4      [core]2S( 0.50)2p( 1.68)3p( 0.01)
      C    5      [core]2S( 0.50)2p( 1.58)
      N    6      [core]2S( 0.64)2p( 2.14)3p( 0.01)
      C    7      [core]2S( 0.49)2p( 1.58)
      C    8      [core]2S( 0.50)2p( 1.68)3p( 0.01)
      C    9      [core]2S( 0.47)2p( 1.52)3p( 0.01)
      C   10      [core]2S( 0.51)2p( 1.68)
      C   11      [core]2S( 0.48)2p( 1.62)
      C   12      [core]2S( 0.51)2p( 1.67)3p( 0.01)
      C   13      [core]2S( 0.51)2p( 1.68)3p( 0.01)
      C   14      [core]2S( 0.47)2p( 1.45)3p( 0.01)
      O   15      [core]2S( 0.84)2p( 2.53)
      C   16      [core]2S( 0.54)2p( 1.75)
      C   17      [core]2S( 0.53)2p( 1.75)
      H   18            1S( 0.40)
      H   19            1S( 0.40)
      H   20            1S( 0.40)
      H   21            1S( 0.40)
      H   22            1S( 0.40)
      H   23            1S( 0.40)
      H   24            1S( 0.40)
      H   25            1S( 0.42)
      H   26            1S( 0.39)
      H   27            1S( 0.42)
      H   28            1S( 0.39)
      H   29            1S( 0.40)
      H   30            1S( 0.40)
      H   31            1S( 0.41)
      H   32            1S( 0.39)
      H   33            1S( 0.39)
      H   34            1S( 0.40)
      H   35            1S( 0.40)
      H   36            1S( 0.40)
      H   37            1S( 0.40)
      H   38            1S( 0.40)
      H   39            1S( 0.41)
      H   40            1S( 0.27)
      H   41            1S( 0.40)
      H   42            1S( 0.40)
      H   43            1S( 0.40)
      H   44            1S( 0.40)
      H   45            1S( 0.40)
      H   46            1S( 0.40)


 NBO analysis skipped by request.
 1\1\GINC-NODE356\SP\UB3LYP\6-311++G(d,p)\C15H29N1O1(1-,2)\VSC10255\11-
 Dec-2020\0\\# B3LYP/6-311++G(d,p) empiricaldispersion=gd3bj scf=xqc po
 p=npa geom=check\\CID_55164870_JID_7644_Energie_anion\\-1,2\C,0,1.4482
 800676,0.0849500395,0.4299292087\C,0,0.5109849158,1.2965535395,0.42054
 35366\C,0,0.9011979108,2.4566899378,-0.5239197601\C,0,-0.1679405347,3.
 5639935006,-0.3914662331\C,0,-0.087394335,4.6250294839,-1.4872041771\N
 ,0,-0.2085138942,4.009095848,-2.8230359921\C,0,0.9428810699,3.12442604
 39,-3.0093123967\C,0,0.9014350965,1.9805301775,-1.9925529322\C,0,-0.44
 032154,5.0540196628,-3.8528262595\C,0,0.2426849108,4.8763708437,-5.233
 4251392\C,0,-0.4300215718,3.9667264359,-6.2908009999\C,0,-1.9269138191
 ,4.3065993194,-6.3832506955\C,0,-2.5894946293,4.2421055653,-5.00670011
 76\C,0,-1.9728380506,5.2539512851,-4.04012179\O,0,-2.6706613932,5.2253
 449302,-2.7995171156\C,0,-0.2198179957,2.4564080846,-6.1172963213\C,0,
 2.2828660582,3.0103250534,-0.1312524891\H,0,1.5354946217,-0.3679881027
 ,-0.5637310174\H,0,1.0686279825,-0.686151406,1.1093843931\H,0,2.456291
 1823,0.3496228527,0.7660943616\H,0,0.4322946901,1.6967708556,1.4415387
 055\H,0,-0.4989707484,0.9607051359,0.1469582728\H,0,-1.1639324491,3.10
 240729,-0.4385461677\H,0,-0.0866895913,4.0464058466,0.5915756202\H,0,0
 .8636639664,5.1874749218,-1.415245276\H,0,-0.891848416,5.3495773737,-1
 .3608556068\H,0,1.8969781843,3.6790679801,-2.9179693269\H,0,0.92290698
 04,2.6969537986,-4.0070991946\H,0,1.7516349369,1.3125254868,-2.1767444
 782\H,0,-0.0130063069,1.4016543449,-2.1802056921\H,0,-0.0359180298,5.9
 990123662,-3.4546147584\H,0,0.2557795508,5.8851431022,-5.66765375\H,0,
 1.2953644417,4.6036804073,-5.1030590636\H,0,0.0360243096,4.2327416195,
 -7.250015983\H,0,-2.4253997501,3.6278690951,-7.0864487219\H,0,-2.04603
 62134,5.3214319847,-6.7892909233\H,0,-2.4806386706,3.2378774906,-4.575
 0029337\H,0,-3.6639646232,4.4442011495,-5.0743629983\H,0,-2.1314913851
 ,6.2631654276,-4.4404158927\H,0,-2.4543777222,4.3520403557,-2.42609288
 78\H,0,-0.6589270275,1.9215055045,-6.9678928017\H,0,0.8451211391,2.199
 8829215,-6.0833494286\H,0,-0.6907037731,2.0689169616,-5.2085735864\H,0
 ,2.5497426876,3.8990946111,-0.7102562172\H,0,2.2974682329,3.2907006591
 ,0.9290961094\H,0,3.0713695347,2.2680102149,-0.2941010828\\Version=ES6
 4L-G16RevA.03\State=2-A\HF=-719.3105961\S2=0.750032\S2-1=0.\S2A=0.75\R
 MSD=5.890e-09\Dipole=-1.1050996,0.4677891,1.1425012\Quadrupole=11.4597
 026,6.5454186,-18.0051212,10.6662062,-9.409132,15.3180263\PG=C01 [X(C1
 5H29N1O1)]\\@


 CLIMB THE MOUNTAINS AND GET THEIR GOOD TIDINGS.
 NATURE'S PEACE WILL FLOW INTO YOU AS SUNSHINE FLOWS INTO TREES.
 THE WINDS WILL BLOW THEIR OWN FRESHNESS INTO YOU, 
 AND CARES WILL DROP OFF LIKE AUTUMN LEAVES.

                                         -- JOHN MUIR
 Job cpu time:       0 days  1 hours 46 minutes  5.8 seconds.
 Elapsed time:       0 days  0 hours 26 minutes 38.7 seconds.
 File lengths (MBytes):  RWF=    368 Int=      0 D2E=      0 Chk=     36 Scr=      8
 Normal termination of Gaussian 16 at Fri Dec 11 14:23:59 2020.
