 Entering Gaussian System, Link 0=g16
 Initial command:
 /apps/brussel/CO7/ivybridge-ib/software/Gaussian/G16.A.03-intel-2017b/g16/l1.exe "/scratch/brussel/102/vsc10255/3546946[3256].master01.hydra.brussel.vsc/Gau-62299.inp" -scrdir="/scratch/brussel/102/vsc10255/3546946[3256].master01.hydra.brussel.vsc/"
 Entering Link 1 = /apps/brussel/CO7/ivybridge-ib/software/Gaussian/G16.A.03-intel-2017b/g16/l1.exe.bin PID=     62519.
  
 Copyright (c) 1988,1990,1992,1993,1995,1998,2003,2009,2016,
            Gaussian, Inc.  All Rights Reserved.
  
 This is part of the Gaussian(R) 16 program.  It is based on
 the Gaussian(R) 09 system (copyright 2009, Gaussian, Inc.),
 the Gaussian(R) 03 system (copyright 2003, Gaussian, Inc.),
 the Gaussian(R) 98 system (copyright 1998, Gaussian, Inc.),
 the Gaussian(R) 94 system (copyright 1995, Gaussian, Inc.),
 the Gaussian 92(TM) system (copyright 1992, Gaussian, Inc.),
 the Gaussian 90(TM) system (copyright 1990, Gaussian, Inc.),
 the Gaussian 88(TM) system (copyright 1988, Gaussian, Inc.),
 the Gaussian 86(TM) system (copyright 1986, Carnegie Mellon
 University), and the Gaussian 82(TM) system (copyright 1983,
 Carnegie Mellon University). Gaussian is a federally registered
 trademark of Gaussian, Inc.
  
 This software contains proprietary and confidential information,
 including trade secrets, belonging to Gaussian, Inc.
  
 This software is provided under written license and may be
 used, copied, transmitted, or stored only in accord with that
 written license.
  
 The following legend is applicable only to US Government
 contracts under FAR:
  
                    RESTRICTED RIGHTS LEGEND
  
 Use, reproduction and disclosure by the US Government is
 subject to restrictions as set forth in subparagraphs (a)
 and (c) of the Commercial Computer Software - Restricted
 Rights clause in FAR 52.227-19.
  
 Gaussian, Inc.
 340 Quinnipiac St., Bldg. 40, Wallingford CT 06492
  
  
 ---------------------------------------------------------------
 Warning -- This program may not be used in any manner that
 competes with the business of Gaussian, Inc. or will provide
 assistance to any competitor of Gaussian, Inc.  The licensee
 of this program is prohibited from giving any competitor of
 Gaussian, Inc. access to this program.  By using this program,
 the user acknowledges that Gaussian, Inc. is engaged in the
 business of creating and licensing software in the field of
 computational chemistry and represents and warrants to the
 licensee that it is not a competitor of Gaussian, Inc. and that
 it will not use this program in any manner prohibited above.
 ---------------------------------------------------------------
  

 Cite this work as:
 Gaussian 16, Revision A.03,
 M. J. Frisch, G. W. Trucks, H. B. Schlegel, G. E. Scuseria, 
 M. A. Robb, J. R. Cheeseman, G. Scalmani, V. Barone, 
 G. A. Petersson, H. Nakatsuji, X. Li, M. Caricato, A. V. Marenich, 
 J. Bloino, B. G. Janesko, R. Gomperts, B. Mennucci, H. P. Hratchian, 
 J. V. Ortiz, A. F. Izmaylov, J. L. Sonnenberg, D. Williams-Young, 
 F. Ding, F. Lipparini, F. Egidi, J. Goings, B. Peng, A. Petrone, 
 T. Henderson, D. Ranasinghe, V. G. Zakrzewski, J. Gao, N. Rega, 
 G. Zheng, W. Liang, M. Hada, M. Ehara, K. Toyota, R. Fukuda, 
 J. Hasegawa, M. Ishida, T. Nakajima, Y. Honda, O. Kitao, H. Nakai, 
 T. Vreven, K. Throssell, J. A. Montgomery, Jr., J. E. Peralta, 
 F. Ogliaro, M. J. Bearpark, J. J. Heyd, E. N. Brothers, K. N. Kudin, 
 V. N. Staroverov, T. A. Keith, R. Kobayashi, J. Normand, 
 K. Raghavachari, A. P. Rendell, J. C. Burant, S. S. Iyengar, 
 J. Tomasi, M. Cossi, J. M. Millam, M. Klene, C. Adamo, R. Cammi, 
 J. W. Ochterski, R. L. Martin, K. Morokuma, O. Farkas, 
 J. B. Foresman, and D. J. Fox, Gaussian, Inc., Wallingford CT, 2016.
 
 ******************************************
 Gaussian 16:  ES64L-G16RevA.03 25-Dec-2016
                 9-Dec-2020 
 ******************************************
 %chk=JID_3256.chk
 %mem=8GB
 %nprocshared=4
 Will use up to    4 processors via shared memory.
 -----------------------------------------------------------
 # opt freq B3LYP/6-31G(d) empiricaldispersion=gd3bj scf=xqc
 -----------------------------------------------------------
 1/18=20,19=15,26=3,38=1/1,3;
 2/9=110,12=2,17=6,18=5,40=1/2;
 3/5=1,6=6,7=1,11=2,25=1,30=1,71=1,74=-5,124=41/1,2,3;
 4//1;
 5/5=2,8=3,13=1,38=5/2,8;
 6/7=2,8=2,9=2,10=2,28=1/1;
 7//1,2,3,16;
 1/18=20,19=15,26=3/3(2);
 2/9=110/2;
 99//99;
 2/9=110/2;
 3/5=1,6=6,7=1,11=2,25=1,30=1,71=1,74=-5,124=41/1,2,3;
 4/5=5,16=3,69=1/1;
 5/5=2,8=3,13=1,38=5/2,8;
 7//1,2,3,16;
 1/18=20,19=15,26=3/3(-5);
 2/9=110/2;
 6/7=2,8=2,9=2,10=2,19=2,28=1/1;
 99/9=1/99;
 ------------------------------
 CID_45078489_JID_3256_neutraal
 ------------------------------
 Symbolic Z-matrix:
 Charge =  0 Multiplicity = 1
 C                    -3.403     0.038     0.001 
 C                    -1.93255  -0.02931  -0.0578 
 N                    -1.19585  -1.11036  -0.19292 
 C                     0.10259  -0.67192  -0.17852 
 C                     0.15806   0.70894  -0.0389 
 N                    -1.15342   1.09473   0.02975 
 C                     1.34808   1.43206   0.01517 
 C                     2.54073   0.69456  -0.07564 
 C                     2.50679  -0.70407  -0.22712 
 C                     1.2933   -1.39999  -0.27733 
 C                     3.86306   1.41295   0.00113 
 C                     4.6514    1.01657   1.23879 
 N                     5.3054    0.68774   2.26553 
 H                    -3.7339    0.54764   0.91133 
 H                    -3.79951   0.57922  -0.86364 
 H                    -3.83691  -0.96676  -0.00009 
 H                    -1.49048   2.03998   0.13721 
 H                     1.34566   2.51082   0.13247 
 H                     3.43144  -1.27594  -0.29442 
 H                     1.2647   -2.47892  -0.38097 
 H                     4.45258   1.18185  -0.89404 
 H                     3.71866   2.49969   0.01379 
 

 GradGradGradGradGradGradGradGradGradGradGradGradGradGradGradGradGradGrad
 Berny optimization.
 Initialization pass.
                           ----------------------------
                           !    Initial Parameters    !
                           ! (Angstroms and Degrees)  !
 --------------------------                            --------------------------
 ! Name  Definition              Value          Derivative Info.                !
 --------------------------------------------------------------------------------
 ! R1    R(1,2)                  1.4732         estimate D2E/DX2                !
 ! R2    R(1,14)                 1.0945         estimate D2E/DX2                !
 ! R3    R(1,15)                 1.0944         estimate D2E/DX2                !
 ! R4    R(1,16)                 1.0945         estimate D2E/DX2                !
 ! R5    R(2,3)                  1.3152         estimate D2E/DX2                !
 ! R6    R(2,6)                  1.3705         estimate D2E/DX2                !
 ! R7    R(3,4)                  1.3705         estimate D2E/DX2                !
 ! R8    R(4,5)                  1.389          estimate D2E/DX2                !
 ! R9    R(4,10)                 1.3992         estimate D2E/DX2                !
 ! R10   R(5,6)                  1.3688         estimate D2E/DX2                !
 ! R11   R(5,7)                  1.3935         estimate D2E/DX2                !
 ! R12   R(6,17)                 1.0093         estimate D2E/DX2                !
 ! R13   R(7,8)                  1.4052         estimate D2E/DX2                !
 ! R14   R(7,18)                 1.0851         estimate D2E/DX2                !
 ! R15   R(8,9)                  1.4072         estimate D2E/DX2                !
 ! R16   R(8,11)                 1.5068         estimate D2E/DX2                !
 ! R17   R(9,10)                 1.3998         estimate D2E/DX2                !
 ! R18   R(9,19)                 1.0893         estimate D2E/DX2                !
 ! R19   R(10,20)                1.0843         estimate D2E/DX2                !
 ! R20   R(11,12)                1.52           estimate D2E/DX2                !
 ! R21   R(11,21)                1.0965         estimate D2E/DX2                !
 ! R22   R(11,22)                1.0964         estimate D2E/DX2                !
 ! R23   R(12,13)                1.261          estimate D2E/DX2                !
 ! A1    A(2,1,14)             110.8698         estimate D2E/DX2                !
 ! A2    A(2,1,15)             110.6524         estimate D2E/DX2                !
 ! A3    A(2,1,16)             110.7167         estimate D2E/DX2                !
 ! A4    A(14,1,15)            108.4998         estimate D2E/DX2                !
 ! A5    A(14,1,16)            107.9655         estimate D2E/DX2                !
 ! A6    A(15,1,16)            108.0337         estimate D2E/DX2                !
 ! A7    A(1,2,3)              126.9261         estimate D2E/DX2                !
 ! A8    A(1,2,6)              121.8328         estimate D2E/DX2                !
 ! A9    A(3,2,6)              111.241          estimate D2E/DX2                !
 ! A10   A(2,3,4)              105.4652         estimate D2E/DX2                !
 ! A11   A(3,4,5)              110.9109         estimate D2E/DX2                !
 ! A12   A(3,4,10)             129.7204         estimate D2E/DX2                !
 ! A13   A(5,4,10)             119.3684         estimate D2E/DX2                !
 ! A14   A(4,5,6)              104.2987         estimate D2E/DX2                !
 ! A15   A(4,5,7)              123.6325         estimate D2E/DX2                !
 ! A16   A(6,5,7)              132.0677         estimate D2E/DX2                !
 ! A17   A(2,6,5)              108.08           estimate D2E/DX2                !
 ! A18   A(2,6,17)             125.8095         estimate D2E/DX2                !
 ! A19   A(5,6,17)             126.1068         estimate D2E/DX2                !
 ! A20   A(5,7,8)              116.7396         estimate D2E/DX2                !
 ! A21   A(5,7,18)             121.2085         estimate D2E/DX2                !
 ! A22   A(8,7,18)             122.0488         estimate D2E/DX2                !
 ! A23   A(7,8,9)              120.5388         estimate D2E/DX2                !
 ! A24   A(7,8,11)             119.4267         estimate D2E/DX2                !
 ! A25   A(9,8,11)             120.0328         estimate D2E/DX2                !
 ! A26   A(8,9,10)             121.2585         estimate D2E/DX2                !
 ! A27   A(8,9,19)             120.5286         estimate D2E/DX2                !
 ! A28   A(10,9,19)            118.2073         estimate D2E/DX2                !
 ! A29   A(4,10,9)             118.4585         estimate D2E/DX2                !
 ! A30   A(4,10,20)            120.1392         estimate D2E/DX2                !
 ! A31   A(9,10,20)            121.4            estimate D2E/DX2                !
 ! A32   A(8,11,12)            111.8574         estimate D2E/DX2                !
 ! A33   A(8,11,21)            109.2529         estimate D2E/DX2                !
 ! A34   A(8,11,22)            110.9515         estimate D2E/DX2                !
 ! A35   A(12,11,21)           109.3262         estimate D2E/DX2                !
 ! A36   A(12,11,22)           108.5054         estimate D2E/DX2                !
 ! A37   A(21,11,22)           106.8074         estimate D2E/DX2                !
 ! A38   L(11,12,13,20,-1)     180.0002         estimate D2E/DX2                !
 ! A39   L(11,12,13,20,-2)     179.9997         estimate D2E/DX2                !
 ! D1    D(14,1,2,3)           124.5412         estimate D2E/DX2                !
 ! D2    D(14,1,2,6)           -55.3753         estimate D2E/DX2                !
 ! D3    D(15,1,2,3)          -115.0208         estimate D2E/DX2                !
 ! D4    D(15,1,2,6)            65.0628         estimate D2E/DX2                !
 ! D5    D(16,1,2,3)             4.7319         estimate D2E/DX2                !
 ! D6    D(16,1,2,6)          -175.1845         estimate D2E/DX2                !
 ! D7    D(1,2,3,4)           -179.3059         estimate D2E/DX2                !
 ! D8    D(6,2,3,4)              0.618          estimate D2E/DX2                !
 ! D9    D(1,2,6,5)            179.2498         estimate D2E/DX2                !
 ! D10   D(1,2,6,17)            -0.0831         estimate D2E/DX2                !
 ! D11   D(3,2,6,5)             -0.6786         estimate D2E/DX2                !
 ! D12   D(3,2,6,17)           179.9886         estimate D2E/DX2                !
 ! D13   D(2,3,4,5)             -0.3409         estimate D2E/DX2                !
 ! D14   D(2,3,4,10)           179.4836         estimate D2E/DX2                !
 ! D15   D(3,4,5,6)             -0.0587         estimate D2E/DX2                !
 ! D16   D(3,4,5,7)            179.6029         estimate D2E/DX2                !
 ! D17   D(10,4,5,6)          -179.9038         estimate D2E/DX2                !
 ! D18   D(10,4,5,7)            -0.2422         estimate D2E/DX2                !
 ! D19   D(3,4,10,9)          -179.6115         estimate D2E/DX2                !
 ! D20   D(3,4,10,20)           -0.1617         estimate D2E/DX2                !
 ! D21   D(5,4,10,9)             0.2004         estimate D2E/DX2                !
 ! D22   D(5,4,10,20)          179.6502         estimate D2E/DX2                !
 ! D23   D(4,5,6,2)              0.4246         estimate D2E/DX2                !
 ! D24   D(4,5,6,17)           179.7549         estimate D2E/DX2                !
 ! D25   D(7,5,6,2)           -179.1959         estimate D2E/DX2                !
 ! D26   D(7,5,6,17)             0.1344         estimate D2E/DX2                !
 ! D27   D(4,5,7,8)             -0.173          estimate D2E/DX2                !
 ! D28   D(4,5,7,18)          -179.541          estimate D2E/DX2                !
 ! D29   D(6,5,7,8)            179.3853         estimate D2E/DX2                !
 ! D30   D(6,5,7,18)             0.0174         estimate D2E/DX2                !
 ! D31   D(5,7,8,9)              0.6251         estimate D2E/DX2                !
 ! D32   D(5,7,8,11)          -178.9083         estimate D2E/DX2                !
 ! D33   D(18,7,8,9)           179.9873         estimate D2E/DX2                !
 ! D34   D(18,7,8,11)            0.4539         estimate D2E/DX2                !
 ! D35   D(7,8,9,10)            -0.6833         estimate D2E/DX2                !
 ! D36   D(7,8,9,19)          -179.8109         estimate D2E/DX2                !
 ! D37   D(11,8,9,10)          178.8473         estimate D2E/DX2                !
 ! D38   D(11,8,9,19)           -0.2804         estimate D2E/DX2                !
 ! D39   D(7,8,11,12)          114.9918         estimate D2E/DX2                !
 ! D40   D(7,8,11,21)         -123.8228         estimate D2E/DX2                !
 ! D41   D(7,8,11,22)           -6.3258         estimate D2E/DX2                !
 ! D42   D(9,8,11,12)          -64.544          estimate D2E/DX2                !
 ! D43   D(9,8,11,21)           56.6414         estimate D2E/DX2                !
 ! D44   D(9,8,11,22)          174.1384         estimate D2E/DX2                !
 ! D45   D(8,9,10,4)             0.2525         estimate D2E/DX2                !
 ! D46   D(8,9,10,20)         -179.19           estimate D2E/DX2                !
 ! D47   D(19,9,10,4)          179.3998         estimate D2E/DX2                !
 ! D48   D(19,9,10,20)          -0.0426         estimate D2E/DX2                !
 --------------------------------------------------------------------------------
 Trust Radius=3.00D-01 FncErr=1.00D-07 GrdErr=1.00D-06 EigMax=2.50D+02 EigMin=1.00D-04
 Number of steps in this run=    120 maximum allowed number of steps=    132.
 GradGradGradGradGradGradGradGradGradGradGradGradGradGradGradGradGradGrad

                          Input orientation:                          
 ---------------------------------------------------------------------
 Center     Atomic      Atomic             Coordinates (Angstroms)
 Number     Number       Type             X           Y           Z
 ---------------------------------------------------------------------
      1          6           0       -3.403000    0.038000    0.001000
      2          6           0       -1.932550   -0.029310   -0.057800
      3          7           0       -1.195850   -1.110360   -0.192920
      4          6           0        0.102590   -0.671920   -0.178520
      5          6           0        0.158060    0.708940   -0.038900
      6          7           0       -1.153420    1.094730    0.029750
      7          6           0        1.348080    1.432060    0.015170
      8          6           0        2.540730    0.694560   -0.075640
      9          6           0        2.506790   -0.704070   -0.227120
     10          6           0        1.293300   -1.399990   -0.277330
     11          6           0        3.863060    1.412950    0.001130
     12          6           0        4.651400    1.016570    1.238790
     13          7           0        5.305400    0.687740    2.265530
     14          1           0       -3.733900    0.547640    0.911330
     15          1           0       -3.799510    0.579220   -0.863640
     16          1           0       -3.836910   -0.966760   -0.000090
     17          1           0       -1.490480    2.039980    0.137210
     18          1           0        1.345660    2.510820    0.132470
     19          1           0        3.431440   -1.275940   -0.294420
     20          1           0        1.264700   -2.478920   -0.380970
     21          1           0        4.452580    1.181850   -0.894040
     22          1           0        3.718660    2.499690    0.013790
 ---------------------------------------------------------------------
                    Distance matrix (angstroms):
                    1          2          3          4          5
     1  C    0.000000
     2  C    1.473164   0.000000
     3  N    2.495565   1.315163   0.000000
     4  C    3.581253   2.137596   1.370541   0.000000
     5  C    3.623934   2.217210   2.273026   1.389009   0.000000
     6  N    2.485581   1.370465   2.216710   2.177611   1.368768
     7  C    4.951400   3.592139   3.602607   2.452650   1.393547
     8  C    5.980374   4.531505   4.151328   2.796852   2.382997
     9  C    5.960564   4.493519   3.725021   2.404906   2.747464
    10  C    4.919402   3.511846   2.507365   1.399157   2.406908
    11  C    7.395006   5.972661   5.656617   4.303498   3.771506
    12  C    8.207502   6.791422   6.384666   5.054843   4.681584
    13  N    9.021446   7.635440   7.179373   5.906885   5.639677
    14  H    1.094499   2.125311   3.226458   4.170582   4.009527
    15  H    1.094414   2.122552   3.175467   4.154651   4.044673
    16  H    1.094450   2.123377   2.651981   3.954545   4.332351
    17  H    2.772041   2.124951   3.181263   3.161006   2.126115
    18  H    5.355548   4.151521   4.436000   3.431002   2.164840
    19  H    6.965865   5.512029   4.631364   3.385191   3.836672
    20  H    5.316786   4.040722   2.821812   2.157947   3.391772
    21  H    7.988719   6.552564   6.136005   4.782347   4.404295
    22  H    7.535126   6.191699   6.101442   4.813736   3.985904
                    6          7          8          9         10
     6  N    0.000000
     7  C    2.524184   0.000000
     8  C    3.717255   1.405193   0.000000
     9  C    4.086417   2.442205   1.407219   0.000000
    10  C    3.507758   2.847642   2.446201   1.399780   0.000000
    11  C    5.026644   2.515092   1.506829   2.524547   3.820188
    12  C    5.929909   3.547083   2.507258   3.115902   4.406270
    13  N    6.846949   4.612864   3.622778   3.997832   5.188613
    14  H    2.781253   5.235630   6.353478   6.465992   5.520771
    15  H    2.840016   5.291250   6.390062   6.466948   5.495248
    16  H    3.384043   5.713028   6.590902   6.353194   5.155929
    17  H    1.009284   2.905492   4.255128   4.862172   4.444622
    18  H    2.874241   1.085121   2.184102   3.437011   3.932571
    19  H    5.171664   3.430670   2.173499   1.089285   2.141804
    20  H    4.334394   3.931875   3.434014   2.171762   1.084274
    21  H    5.682272   3.244563   2.135978   2.790623   4.126412
    22  H    5.070634   2.599901   2.157316   3.433765   4.601590
                   11         12         13         14         15
    11  C    0.000000
    12  C    1.520000   0.000000
    13  N    2.780968   1.260968   0.000000
    14  H    7.700067   8.404783   9.141249   0.000000
    15  H    7.756153   8.719482   9.628233   1.776463   0.000000
    16  H    8.059315   8.804535   9.563066   1.770510   1.771206
    17  H    5.391853   6.323254   7.248606   2.803440   2.909835
    18  H    2.749522   3.792709   4.853154   5.501148   5.585346
    19  H    2.739302   3.015732   3.731100   7.491420   7.486806
    20  H    4.695117   5.129504   5.775721   5.984656   5.935606
    21  H    1.096481   2.148444   3.309733   8.407142   8.274121
    22  H    1.096365   2.137820   3.297156   7.756077   7.809031
                   16         17         18         19         20
    16  H    0.000000
    17  H    3.816421   0.000000
    18  H    6.242609   2.874961   0.000000
    19  H    7.280875   5.950372   4.344222   0.000000
    20  H    5.334615   5.317893   5.016740   2.479801   0.000000
    21  H    8.609954   6.092604   3.531690   2.728187   4.881297
    22  H    8.312828   5.230842   2.375992   3.799062   5.564559
                   21         22
    21  H    0.000000
    22  H    1.760539   0.000000
 Stoichiometry    C10H9N3
 Framework group  C1[X(C10H9N3)]
 Deg. of freedom    60
 Full point group                 C1      NOp   1
 Largest Abelian subgroup         C1      NOp   1
 Largest concise Abelian subgroup C1      NOp   1
                         Standard orientation:                         
 ---------------------------------------------------------------------
 Center     Atomic      Atomic             Coordinates (Angstroms)
 Number     Number       Type             X           Y           Z
 ---------------------------------------------------------------------
      1          6           0        4.357645   -0.412089    0.443399
      2          6           0        2.934730   -0.115003    0.204101
      3          7           0        2.373007    1.073156    0.155118
      4          6           0        1.042212    0.839072   -0.074167
      5          6           0        0.788519   -0.522872   -0.174633
      6          7           0        2.013143   -1.108674    0.000460
      7          6           0       -0.478826   -1.057478   -0.398259
      8          6           0       -1.538314   -0.142598   -0.520922
      9          6           0       -1.301603    1.241711   -0.431918
     10          6           0       -0.015362    1.745607   -0.205962
     11          6           0       -2.938159   -0.655856   -0.738945
     12          6           0       -3.849436   -0.329666    0.433051
     13          7           0       -4.605422   -0.059062    1.405316
     14          1           0        4.476415   -1.093357    1.291748
     15          1           0        4.809115   -0.875001   -0.439567
     16          1           0        4.912375    0.504630    0.666383
     17          1           0        2.205078   -2.099508   -0.007467
     18          1           0       -0.633454   -2.129591   -0.462700
     19          1           0       -2.123478    1.950647   -0.523968
     20          1           0        0.167581    2.811194   -0.124070
     21          1           0       -3.348517   -0.209941   -1.652748
     22          1           0       -2.938652   -1.741994   -0.888340
 ---------------------------------------------------------------------
 Rotational constants (GHZ):           2.4935744           0.3982516           0.3706645
 Standard basis: 6-31G(d) (6D, 7F)
 There are   213 symmetry adapted cartesian basis functions of A   symmetry.
 There are   213 symmetry adapted basis functions of A   symmetry.
   213 basis functions,   400 primitive gaussians,   213 cartesian basis functions
    45 alpha electrons       45 beta electrons
       nuclear repulsion energy       695.7828156343 Hartrees.
 NAtoms=   22 NActive=   22 NUniq=   22 SFac= 1.00D+00 NAtFMM=   60 NAOKFM=F Big=F
 Integral buffers will be    131072 words long.
 Raffenetti 2 integral format.
 Two-electron integral symmetry is turned on.
 Nuclear repulsion after empirical dispersion term =      695.7406268513 Hartrees.
 One-electron integrals computed using PRISM.
 NBasis=   213 RedAO= T EigKep=  3.67D-04  NBF=   213
 NBsUse=   213 1.00D-06 EigRej= -1.00D+00 NBFU=   213
 ExpMin= 1.61D-01 ExpMax= 4.17D+03 ExpMxC= 6.27D+02 IAcc=3 IRadAn=         5 AccDes= 0.00D+00
 Harris functional with IExCor=  402 and IRadAn=       5 diagonalized for initial guess.
 HarFok:  IExCor=  402 AccDes= 0.00D+00 IRadAn=         5 IDoV= 1 UseB2=F ITyADJ=14
 ICtDFT=  3500011 ScaDFX=  1.000000  1.000000  1.000000  1.000000
 FoFCou: FMM=F IPFlag=           0 FMFlag=      100000 FMFlg1=           0
         NFxFlg=           0 DoJE=T BraDBF=F KetDBF=T FulRan=T
         wScrn=  0.000000 ICntrl=       500 IOpCl=  0 I1Cent=   200000004 NGrid=           0
         NMat0=    1 NMatS0=      1 NMatT0=    0 NMatD0=    1 NMtDS0=    0 NMtDT0=    0
 Petite list used in FoFCou.
 Keep R1 ints in memory in canonical form, NReq=264627747.
 Requested convergence on RMS density matrix=1.00D-08 within  32 cycles.
 Requested convergence on MAX density matrix=1.00D-06.
 Requested convergence on             energy=1.00D-06.
 No special actions if energy rises.
 Integral accuracy reduced to 1.0D-05 until final iterations.
 Initial convergence to 1.0D-05 achieved.  Increase integral accuracy.
 SCF Done:  E(RB3LYP) =  -550.763195900     A.U. after   15 cycles
            NFock= 15  Conv=0.93D-08     -V/T= 2.0101
 QCSCF skips out because SCF is already converged.

 **********************************************************************

            Population analysis using the SCF density.

 **********************************************************************

 Orbital symmetries:
       Occupied  (A) (A) (A) (A) (A) (A) (A) (A) (A) (A) (A) (A)
                 (A) (A) (A) (A) (A) (A) (A) (A) (A) (A) (A) (A)
                 (A) (A) (A) (A) (A) (A) (A) (A) (A) (A) (A) (A)
                 (A) (A) (A) (A) (A) (A) (A) (A) (A)
       Virtual   (A) (A) (A) (A) (A) (A) (A) (A) (A) (A) (A) (A)
                 (A) (A) (A) (A) (A) (A) (A) (A) (A) (A) (A) (A)
                 (A) (A) (A) (A) (A) (A) (A) (A) (A) (A) (A) (A)
                 (A) (A) (A) (A) (A) (A) (A) (A) (A) (A) (A) (A)
                 (A) (A) (A) (A) (A) (A) (A) (A) (A) (A) (A) (A)
                 (A) (A) (A) (A) (A) (A) (A) (A) (A) (A) (A) (A)
                 (A) (A) (A) (A) (A) (A) (A) (A) (A) (A) (A) (A)
                 (A) (A) (A) (A) (A) (A) (A) (A) (A) (A) (A) (A)
                 (A) (A) (A) (A) (A) (A) (A) (A) (A) (A) (A) (A)
                 (A) (A) (A) (A) (A) (A) (A) (A) (A) (A) (A) (A)
                 (A) (A) (A) (A) (A) (A) (A) (A) (A) (A) (A) (A)
                 (A) (A) (A) (A) (A) (A) (A) (A) (A) (A) (A) (A)
                 (A) (A) (A) (A) (A) (A) (A) (A) (A) (A) (A) (A)
                 (A) (A) (A) (A) (A) (A) (A) (A) (A) (A) (A) (A)
 The electronic state is 1-A.
 Alpha  occ. eigenvalues --  -14.39545 -14.35061 -14.31482 -10.26365 -10.24836
 Alpha  occ. eigenvalues --  -10.24571 -10.22792 -10.21333 -10.20774 -10.20591
 Alpha  occ. eigenvalues --  -10.20551 -10.19333 -10.19280  -1.03055  -0.88554
 Alpha  occ. eigenvalues --   -0.86997  -0.85305  -0.80032  -0.76549  -0.74330
 Alpha  occ. eigenvalues --   -0.69674  -0.63853  -0.60848  -0.59826  -0.55092
 Alpha  occ. eigenvalues --   -0.51853  -0.50389  -0.48578  -0.47044  -0.45954
 Alpha  occ. eigenvalues --   -0.44418  -0.43454  -0.41954  -0.41358  -0.40958
 Alpha  occ. eigenvalues --   -0.37862  -0.36600  -0.35897  -0.33866  -0.31028
 Alpha  occ. eigenvalues --   -0.30273  -0.30161  -0.27330  -0.23510  -0.22742
 Alpha virt. eigenvalues --   -0.02617   0.00341   0.01352   0.02156   0.04955
 Alpha virt. eigenvalues --    0.06380   0.09243   0.10931   0.11853   0.12216
 Alpha virt. eigenvalues --    0.14060   0.14975   0.16499   0.16757   0.18123
 Alpha virt. eigenvalues --    0.19490   0.20611   0.24120   0.24743   0.26689
 Alpha virt. eigenvalues --    0.29483   0.30411   0.31735   0.33999   0.35595
 Alpha virt. eigenvalues --    0.38715   0.45103   0.47239   0.49980   0.50674
 Alpha virt. eigenvalues --    0.51400   0.52299   0.53480   0.54134   0.55089
 Alpha virt. eigenvalues --    0.55458   0.56254   0.58502   0.59091   0.59830
 Alpha virt. eigenvalues --    0.60630   0.61566   0.63181   0.63453   0.64589
 Alpha virt. eigenvalues --    0.65553   0.68631   0.68670   0.69422   0.72045
 Alpha virt. eigenvalues --    0.73161   0.76595   0.76997   0.77713   0.79186
 Alpha virt. eigenvalues --    0.80896   0.82067   0.82256   0.82825   0.83132
 Alpha virt. eigenvalues --    0.84082   0.85537   0.85945   0.87003   0.88159
 Alpha virt. eigenvalues --    0.89393   0.89793   0.91872   0.93010   0.93708
 Alpha virt. eigenvalues --    0.95833   0.96446   1.01176   1.03558   1.06884
 Alpha virt. eigenvalues --    1.10085   1.14282   1.16343   1.19902   1.23258
 Alpha virt. eigenvalues --    1.26221   1.30894   1.32223   1.32694   1.35047
 Alpha virt. eigenvalues --    1.36306   1.37567   1.39209   1.41132   1.45939
 Alpha virt. eigenvalues --    1.46519   1.47007   1.48412   1.52315   1.54643
 Alpha virt. eigenvalues --    1.56824   1.59441   1.62850   1.64530   1.66312
 Alpha virt. eigenvalues --    1.73173   1.76515   1.78961   1.82211   1.83693
 Alpha virt. eigenvalues --    1.84548   1.87237   1.88029   1.89198   1.89939
 Alpha virt. eigenvalues --    1.91726   1.92529   1.93185   1.93538   1.97598
 Alpha virt. eigenvalues --    2.02092   2.03272   2.04662   2.06196   2.07787
 Alpha virt. eigenvalues --    2.11321   2.12568   2.13976   2.22466   2.22749
 Alpha virt. eigenvalues --    2.23899   2.26014   2.28493   2.31355   2.31796
 Alpha virt. eigenvalues --    2.32864   2.36300   2.41108   2.42512   2.52080
 Alpha virt. eigenvalues --    2.54577   2.55834   2.60133   2.61097   2.62209
 Alpha virt. eigenvalues --    2.63271   2.66035   2.68167   2.70443   2.71761
 Alpha virt. eigenvalues --    2.77753   2.81211   2.87060   2.88489   2.91699
 Alpha virt. eigenvalues --    3.04269   3.06437   3.16358   3.23753   3.45997
 Alpha virt. eigenvalues --    3.90279   4.03823   4.06811   4.10692   4.14178
 Alpha virt. eigenvalues --    4.15039   4.20294   4.27393   4.35360   4.43525
 Alpha virt. eigenvalues --    4.52221   4.55392   4.77802
          Condensed to atoms (all electrons):
               1          2          3          4          5          6
     1  C    5.223797   0.365873  -0.059649   0.004289   0.005947  -0.083423
     2  C    0.365873   4.487146   0.562959  -0.082508  -0.068244   0.325340
     3  N   -0.059649   0.562959   6.888761   0.378290  -0.079003  -0.109178
     4  C    0.004289  -0.082508   0.378290   4.632687   0.470620  -0.041075
     5  C    0.005947  -0.068244  -0.079003   0.470620   4.784024   0.224484
     6  N   -0.083423   0.325340  -0.109178  -0.041075   0.224484   7.170412
     7  C   -0.000239   0.005346   0.014794  -0.048715   0.432589  -0.083584
     8  C    0.000001   0.000022  -0.000380  -0.032329   0.006424   0.004173
     9  C    0.000006  -0.000002   0.004907  -0.011683  -0.048867   0.000640
    10  C   -0.000456   0.001900  -0.071109   0.506916  -0.047454   0.012938
    11  C   -0.000000   0.000001  -0.000000   0.000994   0.004156  -0.000156
    12  C    0.000000  -0.000000   0.000000   0.000024  -0.000120   0.000000
    13  N    0.000000  -0.000000  -0.000000   0.000001   0.000000  -0.000000
    14  H    0.361449  -0.029085   0.000854  -0.000041   0.000148  -0.000344
    15  H    0.361431  -0.029466   0.000177  -0.000009   0.000069  -0.000055
    16  H    0.362421  -0.020358   0.003242   0.000316  -0.000024   0.004023
    17  H   -0.000185  -0.026153   0.005526   0.008056  -0.024616   0.304912
    18  H    0.000003  -0.000165  -0.000171   0.004177  -0.032186  -0.005806
    19  H   -0.000000   0.000002  -0.000088   0.002648   0.000639   0.000006
    20  H   -0.000002   0.000133  -0.001128  -0.032962   0.007262  -0.000144
    21  H    0.000000  -0.000000  -0.000000   0.000005  -0.000068   0.000002
    22  H   -0.000000  -0.000000  -0.000000  -0.000009   0.000216  -0.000002
               7          8          9         10         11         12
     1  C   -0.000239   0.000001   0.000006  -0.000456  -0.000000   0.000000
     2  C    0.005346   0.000022  -0.000002   0.001900   0.000001  -0.000000
     3  N    0.014794  -0.000380   0.004907  -0.071109  -0.000000   0.000000
     4  C   -0.048715  -0.032329  -0.011683   0.506916   0.000994   0.000024
     5  C    0.432589   0.006424  -0.048867  -0.047454   0.004156  -0.000120
     6  N   -0.083584   0.004173   0.000640   0.012938  -0.000156   0.000000
     7  C    5.158378   0.536915  -0.041408  -0.050579  -0.036457  -0.001930
     8  C    0.536915   4.693795   0.519166  -0.015842   0.334559  -0.046995
     9  C   -0.041408   0.519166   4.995096   0.508048  -0.063983  -0.003475
    10  C   -0.050579  -0.015842   0.508048   5.023075   0.004794   0.000224
    11  C   -0.036457   0.334559  -0.063983   0.004794   5.280179   0.265869
    12  C   -0.001930  -0.046995  -0.003475   0.000224   0.265869   4.775569
    13  N   -0.000021  -0.002448  -0.000340   0.000006  -0.061475   0.731233
    14  H   -0.000005  -0.000000  -0.000000   0.000008   0.000000   0.000000
    15  H   -0.000002  -0.000000  -0.000000   0.000008  -0.000000  -0.000000
    16  H   -0.000000   0.000000  -0.000000  -0.000004   0.000000  -0.000000
    17  H   -0.001854  -0.000149   0.000006  -0.000182  -0.000001  -0.000000
    18  H    0.337933  -0.037529   0.004976   0.000269  -0.008852   0.000092
    19  H    0.004934  -0.045664   0.359647  -0.035027  -0.006688   0.002211
    20  H    0.000376   0.003934  -0.043834   0.344761  -0.000146  -0.000003
    21  H    0.001057  -0.030962  -0.003045   0.000017   0.362240  -0.037236
    22  H   -0.004282  -0.031092   0.004273  -0.000107   0.356855  -0.028228
              13         14         15         16         17         18
     1  C    0.000000   0.361449   0.361431   0.362421  -0.000185   0.000003
     2  C   -0.000000  -0.029085  -0.029466  -0.020358  -0.026153  -0.000165
     3  N   -0.000000   0.000854   0.000177   0.003242   0.005526  -0.000171
     4  C    0.000001  -0.000041  -0.000009   0.000316   0.008056   0.004177
     5  C    0.000000   0.000148   0.000069  -0.000024  -0.024616  -0.032186
     6  N   -0.000000  -0.000344  -0.000055   0.004023   0.304912  -0.005806
     7  C   -0.000021  -0.000005  -0.000002  -0.000000  -0.001854   0.337933
     8  C   -0.002448  -0.000000  -0.000000   0.000000  -0.000149  -0.037529
     9  C   -0.000340  -0.000000  -0.000000  -0.000000   0.000006   0.004976
    10  C    0.000006   0.000008   0.000008  -0.000004  -0.000182   0.000269
    11  C   -0.061475   0.000000  -0.000000   0.000000  -0.000001  -0.008852
    12  C    0.731233   0.000000  -0.000000  -0.000000  -0.000000   0.000092
    13  N    6.796987   0.000000  -0.000000  -0.000000   0.000000  -0.000002
    14  H    0.000000   0.552047  -0.033048  -0.022252   0.000916   0.000000
    15  H   -0.000000  -0.033048   0.549733  -0.022122   0.000594   0.000000
    16  H   -0.000000  -0.022252  -0.022122   0.495154  -0.000175   0.000000
    17  H    0.000000   0.000916   0.000594  -0.000175   0.403373   0.002346
    18  H   -0.000002   0.000000   0.000000   0.000000   0.002346   0.601111
    19  H    0.000071   0.000000   0.000000  -0.000000  -0.000000  -0.000151
    20  H    0.000000   0.000000   0.000000   0.000003   0.000002   0.000018
    21  H   -0.000658  -0.000000   0.000000  -0.000000   0.000000   0.000036
    22  H   -0.000314   0.000000   0.000000   0.000000   0.000000   0.006559
              19         20         21         22
     1  C   -0.000000  -0.000002   0.000000  -0.000000
     2  C    0.000002   0.000133  -0.000000  -0.000000
     3  N   -0.000088  -0.001128  -0.000000  -0.000000
     4  C    0.002648  -0.032962   0.000005  -0.000009
     5  C    0.000639   0.007262  -0.000068   0.000216
     6  N    0.000006  -0.000144   0.000002  -0.000002
     7  C    0.004934   0.000376   0.001057  -0.004282
     8  C   -0.045664   0.003934  -0.030962  -0.031092
     9  C    0.359647  -0.043834  -0.003045   0.004273
    10  C   -0.035027   0.344761   0.000017  -0.000107
    11  C   -0.006688  -0.000146   0.362240   0.356855
    12  C    0.002211  -0.000003  -0.037236  -0.028228
    13  N    0.000071   0.000000  -0.000658  -0.000314
    14  H    0.000000   0.000000  -0.000000   0.000000
    15  H    0.000000   0.000000   0.000000   0.000000
    16  H   -0.000000   0.000003  -0.000000   0.000000
    17  H   -0.000000   0.000002   0.000000   0.000000
    18  H   -0.000151   0.000018   0.000036   0.006559
    19  H    0.582681  -0.005018   0.001901   0.000080
    20  H   -0.005018   0.581081  -0.000002   0.000002
    21  H    0.001901  -0.000002   0.528313  -0.028579
    22  H    0.000080   0.000002  -0.028579   0.526833
 Mulliken charges:
               1
     1  C   -0.541262
     2  C    0.507260
     3  N   -0.538804
     4  C    0.240309
     5  C    0.364004
     6  N   -0.723162
     7  C   -0.223246
     8  C    0.144400
     9  C   -0.180127
    10  C   -0.182204
    11  C   -0.431888
    12  C    0.342763
    13  N   -0.463040
    14  H    0.169354
    15  H    0.172689
    16  H    0.199775
    17  H    0.327583
    18  H    0.127340
    19  H    0.137814
    20  H    0.145668
    21  H    0.206980
    22  H    0.197795
 Sum of Mulliken charges =   0.00000
 Mulliken charges with hydrogens summed into heavy atoms:
               1
     1  C    0.000555
     2  C    0.507260
     3  N   -0.538804
     4  C    0.240309
     5  C    0.364004
     6  N   -0.395579
     7  C   -0.095906
     8  C    0.144400
     9  C   -0.042314
    10  C   -0.036536
    11  C   -0.027112
    12  C    0.342763
    13  N   -0.463040
 Electronic spatial extent (au):  <R**2>=           2931.2764
 Charge=              0.0000 electrons
 Dipole moment (field-independent basis, Debye):
    X=              4.1388    Y=             -3.9847    Z=             -2.8313  Tot=              6.4050
 Quadrupole moment (field-independent basis, Debye-Ang):
   XX=            -83.5048   YY=            -67.1906   ZZ=            -78.9585
   XY=             -7.6592   XZ=             14.1155   YZ=              0.1559
 Traceless Quadrupole moment (field-independent basis, Debye-Ang):
   XX=             -6.9535   YY=              9.3607   ZZ=             -2.4072
   XY=             -7.6592   XZ=             14.1155   YZ=              0.1559
 Octapole moment (field-independent basis, Debye-Ang**2):
  XXX=            159.0086  YYY=            -15.6009  ZZZ=             -4.8676  XYY=              0.8876
  XXY=            -31.1742  XXZ=            -54.2937  XZZ=             17.7839  YZZ=             -2.9209
  YYZ=             -2.5099  XYZ=             -2.2993
 Hexadecapole moment (field-independent basis, Debye-Ang**3):
 XXXX=          -3653.7286 YYYY=           -425.9707 ZZZZ=           -231.4635 XXXY=            -52.3050
 XXXZ=            287.6381 YYYX=            -40.2746 YYYZ=              1.9533 ZZZX=             38.3106
 ZZZY=              0.2607 XXYY=           -609.3108 XXZZ=           -645.6374 YYZZ=           -122.2199
 XXYZ=              2.0375 YYXZ=              6.5028 ZZXY=             -3.8602
 N-N= 6.957406268513D+02 E-N=-2.668815313350D+03  KE= 5.452374052008D+02
 Calling FoFJK, ICntrl=      2127 FMM=F ISym2X=0 I1Cent= 0 IOpClX= 0 NMat=1 NMatS=1 NMatT=0.
 ***** Axes restored to original set *****
 -------------------------------------------------------------------
 Center     Atomic                   Forces (Hartrees/Bohr)
 Number     Number              X              Y              Z
 -------------------------------------------------------------------
      1        6          -0.010358500   -0.002944283    0.000004572
      2        6           0.007970224   -0.010443203   -0.001274029
      3        7          -0.015816897   -0.007713988    0.000689303
      4        6           0.014453785   -0.019781481   -0.002862067
      5        6           0.010469558    0.020246282    0.001099998
      6        7          -0.009081498    0.017819537    0.002216489
      7        6           0.006685813   -0.007591720   -0.000088144
      8        6          -0.012447797    0.006558958    0.002416536
      9        6          -0.009558056   -0.010430912   -0.000630831
     10        6           0.008710008    0.003141670    0.000201021
     11        6           0.013309206   -0.005189948    0.016710564
     12        6           0.079538215   -0.036665882    0.118907807
     13        7          -0.091327581    0.045132114   -0.142413506
     14        1          -0.001614701    0.001773924    0.000411455
     15        1          -0.002369984    0.001806777   -0.000437676
     16        1           0.003216869    0.001047980   -0.000440313
     17        1          -0.000173846    0.000295585    0.000345051
     18        1           0.002118205    0.000667492    0.000332517
     19        1          -0.000141620    0.003629653    0.000723252
     20        1           0.000367404   -0.000380736   -0.000397517
     21        1           0.004967371   -0.000083702    0.002634923
     22        1           0.001083821   -0.000894115    0.001850595
 -------------------------------------------------------------------
 Cartesian Forces:  Max     0.142413506 RMS     0.029066880

 GradGradGradGradGradGradGradGradGradGradGradGradGradGradGradGradGradGrad
 Berny optimization.
 FormGI is forming the generalized inverse of G from B-inverse, IUseBI=4.
 Internal  Forces:  Max     0.175096305 RMS     0.017374769
 Search for a local minimum.
 Step number   1 out of a maximum of  120
 All quantities printed in internal units (Hartrees-Bohrs-Radians)
 Mixed Optimization -- RFO/linear search
 Second derivative matrix not updated -- first step.
 ITU=  0
     Eigenvalues ---    0.00676   0.01121   0.01488   0.01693   0.02019
     Eigenvalues ---    0.02043   0.02094   0.02095   0.02096   0.02096
     Eigenvalues ---    0.02128   0.02155   0.02167   0.02378   0.03531
     Eigenvalues ---    0.03531   0.07072   0.07471   0.07508   0.07717
     Eigenvalues ---    0.15998   0.15998   0.15999   0.15999   0.16000
     Eigenvalues ---    0.16000   0.16000   0.16000   0.16000   0.22365
     Eigenvalues ---    0.22448   0.23486   0.23828   0.24666   0.24999
     Eigenvalues ---    0.24999   0.25000   0.30367   0.31671   0.34074
     Eigenvalues ---    0.34087   0.34298   0.34303   0.34308   0.34895
     Eigenvalues ---    0.35364   0.35383   0.35483   0.39514   0.41667
     Eigenvalues ---    0.43807   0.44947   0.45485   0.46039   0.46093
     Eigenvalues ---    0.46415   0.49828   0.50961   0.60532   0.79312
 RFO step:  Lambda=-4.31619818D-02 EMin= 6.75609354D-03
 Linear search not attempted -- first point.
 Iteration  1 RMS(Cart)=  0.03352633 RMS(Int)=  0.00095198
 Iteration  2 RMS(Cart)=  0.00095158 RMS(Int)=  0.00004547
 Iteration  3 RMS(Cart)=  0.00000108 RMS(Int)=  0.00004547
 Iteration  4 RMS(Cart)=  0.00000000 RMS(Int)=  0.00004547
 Variable       Old X    -DE/DX   Delta X   Delta X   Delta X     New X
                                 (Linear)    (Quad)   (Total)
    R1        2.78388   0.01116   0.00000   0.02814   0.02814   2.81201
    R2        2.06830   0.00166   0.00000   0.00429   0.00429   2.07259
    R3        2.06814   0.00210   0.00000   0.00543   0.00543   2.07357
    R4        2.06821  -0.00224   0.00000  -0.00579  -0.00579   2.06242
    R5        2.48530   0.00376   0.00000   0.00426   0.00424   2.48953
    R6        2.58980   0.01428   0.00000   0.02477   0.02477   2.61457
    R7        2.58995   0.01450   0.00000   0.02637   0.02636   2.61630
    R8        2.62485   0.02185   0.00000   0.04578   0.04578   2.67063
    R9        2.64402   0.00092   0.00000   0.00280   0.00279   2.64681
   R10        2.58660   0.01425   0.00000   0.02657   0.02659   2.61318
   R11        2.63342   0.00055   0.00000   0.00214   0.00214   2.63556
   R12        1.90727   0.00037   0.00000   0.00074   0.00074   1.90801
   R13        2.65543  -0.00811   0.00000  -0.01752  -0.01750   2.63793
   R14        2.05058   0.00069   0.00000   0.00175   0.00175   2.05233
   R15        2.65926   0.00432   0.00000   0.00686   0.00687   2.66613
   R16        2.84749   0.00762   0.00000   0.02118   0.02118   2.86868
   R17        2.64520  -0.00804   0.00000  -0.01712  -0.01712   2.62808
   R18        2.05845  -0.00207   0.00000  -0.00528  -0.00528   2.05317
   R19        2.04898   0.00041   0.00000   0.00102   0.00102   2.05000
   R20        2.87238  -0.02746   0.00000  -0.07918  -0.07918   2.79320
   R21        2.07205   0.00054   0.00000   0.00140   0.00140   2.07345
   R22        2.07183  -0.00101   0.00000  -0.00262  -0.00262   2.06921
   R23        2.38288  -0.17510   0.00000  -0.20937  -0.20937   2.17351
    A1        1.93504   0.00189   0.00000   0.00944   0.00943   1.94447
    A2        1.93125   0.00284   0.00000   0.01404   0.01404   1.94529
    A3        1.93237  -0.00430   0.00000  -0.02140  -0.02134   1.91103
    A4        1.89368  -0.00234   0.00000  -0.01111  -0.01118   1.88250
    A5        1.88435   0.00123   0.00000   0.00593   0.00597   1.89032
    A6        1.88554   0.00065   0.00000   0.00290   0.00297   1.88851
    A7        2.21528  -0.00475   0.00000  -0.01475  -0.01474   2.20054
    A8        2.12638  -0.00106   0.00000  -0.00218  -0.00217   2.12422
    A9        1.94152   0.00581   0.00000   0.01693   0.01690   1.95842
   A10        1.84072   0.00038   0.00000  -0.00055  -0.00060   1.84012
   A11        1.93576  -0.00255   0.00000  -0.00729  -0.00728   1.92848
   A12        2.26405   0.00374   0.00000   0.00776   0.00777   2.27182
   A13        2.08337  -0.00119   0.00000  -0.00047  -0.00049   2.08288
   A14        1.82036  -0.00041   0.00000   0.00176   0.00178   1.82214
   A15        2.15779  -0.00433   0.00000  -0.01209  -0.01210   2.14569
   A16        2.30502   0.00474   0.00000   0.01033   0.01032   2.31534
   A17        1.88635  -0.00322   0.00000  -0.01075  -0.01074   1.87561
   A18        2.19579   0.00155   0.00000   0.00510   0.00509   2.20088
   A19        2.20098   0.00167   0.00000   0.00570   0.00569   2.20667
   A20        2.03749   0.00077   0.00000   0.00383   0.00384   2.04133
   A21        2.11549   0.00179   0.00000   0.00880   0.00879   2.12428
   A22        2.13015  -0.00255   0.00000  -0.01258  -0.01259   2.11756
   A23        2.10380   0.00230   0.00000   0.00358   0.00360   2.10740
   A24        2.08439  -0.00021   0.00000   0.00143   0.00141   2.08580
   A25        2.09497  -0.00209   0.00000  -0.00498  -0.00500   2.08997
   A26        2.11636   0.00397   0.00000   0.01025   0.01025   2.12661
   A27        2.10362  -0.00512   0.00000  -0.02057  -0.02057   2.08305
   A28        2.06311   0.00116   0.00000   0.01037   0.01037   2.07348
   A29        2.06749  -0.00151   0.00000  -0.00501  -0.00504   2.06245
   A30        2.09682   0.00115   0.00000   0.00446   0.00447   2.10129
   A31        2.11883   0.00036   0.00000   0.00058   0.00059   2.11942
   A32        1.95228   0.00243   0.00000   0.00659   0.00656   1.95884
   A33        1.90682   0.00594   0.00000   0.03128   0.03111   1.93794
   A34        1.93647   0.00031   0.00000   0.00336   0.00322   1.93969
   A35        1.90810  -0.00547   0.00000  -0.02915  -0.02921   1.87889
   A36        1.89378  -0.00253   0.00000  -0.01486  -0.01485   1.87892
   A37        1.86414  -0.00099   0.00000   0.00168   0.00141   1.86555
   A38        3.14160  -0.00171   0.00000  -0.02175  -0.02175   3.11984
   A39        3.14159   0.00051   0.00000   0.00647   0.00647   3.14806
    D1        2.17365  -0.00013   0.00000  -0.00181  -0.00186   2.17179
    D2       -0.96648  -0.00015   0.00000  -0.00189  -0.00193  -0.96841
    D3       -2.00749   0.00005   0.00000  -0.00023  -0.00018  -2.00768
    D4        1.13556   0.00003   0.00000  -0.00031  -0.00025   1.13531
    D5        0.08259  -0.00008   0.00000  -0.00138  -0.00140   0.08119
    D6       -3.05755  -0.00010   0.00000  -0.00146  -0.00146  -3.05901
    D7       -3.12948  -0.00049   0.00000  -0.00735  -0.00737  -3.13685
    D8        0.01079  -0.00048   0.00000  -0.00729  -0.00732   0.00346
    D9        3.12850   0.00051   0.00000   0.00780   0.00779   3.13629
   D10       -0.00145   0.00022   0.00000   0.00344   0.00346   0.00201
   D11       -0.01184   0.00051   0.00000   0.00775   0.00776  -0.00408
   D12        3.14139   0.00021   0.00000   0.00339   0.00343  -3.13837
   D13       -0.00595   0.00032   0.00000   0.00440   0.00436  -0.00159
   D14        3.13258   0.00023   0.00000   0.00344   0.00344   3.13602
   D15       -0.00103  -0.00001   0.00000   0.00020   0.00022  -0.00080
   D16        3.13466   0.00002   0.00000   0.00045   0.00048   3.13515
   D17       -3.13991   0.00006   0.00000   0.00103   0.00101  -3.13890
   D18       -0.00423   0.00009   0.00000   0.00127   0.00127  -0.00295
   D19       -3.13481  -0.00009   0.00000  -0.00163  -0.00164  -3.13645
   D20       -0.00282   0.00012   0.00000   0.00191   0.00191  -0.00091
   D21        0.00350  -0.00019   0.00000  -0.00266  -0.00264   0.00086
   D22        3.13549   0.00003   0.00000   0.00087   0.00091   3.13640
   D23        0.00741  -0.00033   0.00000  -0.00468  -0.00462   0.00279
   D24        3.13731  -0.00004   0.00000  -0.00031  -0.00028   3.13704
   D25       -3.12756  -0.00032   0.00000  -0.00484  -0.00481  -3.13236
   D26        0.00235  -0.00002   0.00000  -0.00047  -0.00046   0.00189
   D27       -0.00302   0.00028   0.00000   0.00431   0.00429   0.00127
   D28       -3.13358  -0.00005   0.00000  -0.00095  -0.00099  -3.13457
   D29        3.13086   0.00029   0.00000   0.00456   0.00457   3.13543
   D30        0.00030  -0.00005   0.00000  -0.00070  -0.00071  -0.00041
   D31        0.01091  -0.00057   0.00000  -0.00853  -0.00850   0.00241
   D32       -3.12254  -0.00077   0.00000  -0.01193  -0.01190  -3.13444
   D33        3.14137  -0.00020   0.00000  -0.00307  -0.00310   3.13827
   D34        0.00792  -0.00040   0.00000  -0.00647  -0.00650   0.00142
   D35       -0.01193   0.00047   0.00000   0.00738   0.00738  -0.00454
   D36       -3.13829   0.00019   0.00000   0.00333   0.00338  -3.13491
   D37        3.12147   0.00067   0.00000   0.01083   0.01082   3.13229
   D38       -0.00489   0.00039   0.00000   0.00678   0.00682   0.00192
   D39        2.00699  -0.00007   0.00000  -0.00168  -0.00171   2.00527
   D40       -2.16112  -0.00134   0.00000  -0.01281  -0.01291  -2.17403
   D41       -0.11041   0.00127   0.00000   0.01043   0.01053  -0.09988
   D42       -1.12651  -0.00029   0.00000  -0.00510  -0.00512  -1.13162
   D43        0.98858  -0.00155   0.00000  -0.01624  -0.01631   0.97226
   D44        3.03929   0.00106   0.00000   0.00700   0.00712   3.04641
   D45        0.00441  -0.00012   0.00000  -0.00164  -0.00162   0.00279
   D46       -3.12746  -0.00034   0.00000  -0.00524  -0.00523  -3.13269
   D47        3.13112   0.00010   0.00000   0.00205   0.00210   3.13321
   D48       -0.00074  -0.00012   0.00000  -0.00155  -0.00151  -0.00226
         Item               Value     Threshold  Converged?
 Maximum Force            0.175096     0.000450     NO 
 RMS     Force            0.017375     0.000300     NO 
 Maximum Displacement     0.232239     0.001800     NO 
 RMS     Displacement     0.034142     0.001200     NO 
 Predicted change in Energy=-2.294901D-02
 GradGradGradGradGradGradGradGradGradGradGradGradGradGradGradGradGradGrad

                          Input orientation:                          
 ---------------------------------------------------------------------
 Center     Atomic      Atomic             Coordinates (Angstroms)
 Number     Number       Type             X           Y           Z
 ---------------------------------------------------------------------
      1          6           0       -3.423153    0.033087   -0.013821
      2          6           0       -1.936868   -0.025550   -0.056452
      3          7           0       -1.206808   -1.114190   -0.188478
      4          6           0        0.107912   -0.680675   -0.168948
      5          6           0        0.163674    0.723717   -0.021279
      6          7           0       -1.160854    1.115344    0.045729
      7          6           0        1.363064    1.433053    0.037378
      8          6           0        2.542041    0.691822   -0.058588
      9          6           0        2.502154   -0.710243   -0.210689
     10          6           0        1.300683   -1.408481   -0.265719
     11          6           0        3.880768    1.404439    0.007935
     12          6           0        4.658293    1.023340    1.205849
     13          7           0        5.246306    0.707794    2.142635
     14          1           0       -3.778142    0.534892    0.894517
     15          1           0       -3.828426    0.574744   -0.877766
     16          1           0       -3.828121   -0.980308   -0.026179
     17          1           0       -1.502243    2.059133    0.155991
     18          1           0        1.382772    2.512235    0.157695
     19          1           0        3.433734   -1.265441   -0.276835
     20          1           0        1.277930   -2.487575   -0.374628
     21          1           0        4.493217    1.175112   -0.873093
     22          1           0        3.748898    2.491231    0.029526
 ---------------------------------------------------------------------
                    Distance matrix (angstroms):
                    1          2          3          4          5
     1  C    0.000000
     2  C    1.488052   0.000000
     3  N    2.501786   1.317404   0.000000
     4  C    3.605820   2.150109   1.384488   0.000000
     5  C    3.652719   2.230452   2.298713   1.413235   0.000000
     6  N    2.508550   1.383573   2.242272   2.209420   1.382837
     7  C    4.987023   3.609137   3.625424   2.466946   1.394680
     8  C    6.001623   4.535995   4.163223   2.796589   2.378873
     9  C    5.974994   4.494164   3.730961   2.394788   2.749655
    10  C    4.945321   3.526758   2.525883   1.400632   2.428746
    11  C    7.431577   5.991152   5.680273   4.314328   3.779024
    12  C    8.232737   6.796302   6.396295   5.049723   4.668748
    13  N    8.959076   7.547963   7.099042   5.802960   5.524121
    14  H    1.096769   2.146795   3.241004   4.208322   4.051204
    15  H    1.097288   2.147767   3.193821   4.192047   4.085662
    16  H    1.091385   2.118802   2.629743   3.950003   4.340295
    17  H    2.797069   2.140078   3.205607   3.194485   2.142438
    18  H    5.410407   4.184043   4.469532   3.453496   2.171872
    19  H    6.983713   5.516273   4.643848   3.378563   3.836060
    20  H    5.346410   4.061740   2.845130   2.162437   3.417429
    21  H    8.044345   6.592001   6.180606   4.813592   4.435571
    22  H    7.581732   6.218481   6.132341   4.832924   3.997563
                    6          7          8          9         10
     6  N    0.000000
     7  C    2.543850   0.000000
     8  C    3.728497   1.395930   0.000000
     9  C    4.100750   2.439832   1.410855   0.000000
    10  C    3.539189   2.858334   2.448499   1.390718   0.000000
    11  C    5.050046   2.518039   1.518038   2.533821   3.826780
    12  C    5.934376   3.520188   2.487414   3.108186   4.399183
    13  N    6.753874   4.476346   3.486930   3.883211   5.083967
    14  H    2.812038   5.288986   6.393571   6.497227   5.560333
    15  H    2.874201   5.340951   6.423988   6.494031   5.533132
    16  H    3.392822   5.725099   6.586049   6.338720   5.152218
    17  H    1.009674   2.935307   4.274555   4.882530   4.478681
    18  H    2.904113   1.086047   2.169006   3.431194   3.944368
    19  H    5.184827   3.415886   2.161858   1.086491   2.137871
    20  H    4.370972   3.943136   3.436048   2.164373   1.084815
    21  H    5.728554   3.270069   2.168888   2.820935   4.151642
    22  H    5.098921   2.609982   2.168442   3.444054   4.613966
                   11         12         13         14         15
    11  C    0.000000
    12  C    1.478099   0.000000
    13  N    2.628107   1.150172   0.000000
    14  H    7.758933   8.456296   9.111989   0.000000
    15  H    7.804136   8.750263   9.565108   1.773444   0.000000
    16  H    8.069397   8.806346   9.481491   1.773700   1.772961
    17  H    5.424699   6.334609   7.163504   2.836978   2.946726
    18  H    2.736719   3.747596   4.703498   5.575645   5.655319
    19  H    2.721983   2.989383   3.610111   7.524920   7.515742
    20  H    4.697754   5.123601   5.682869   6.025769   5.975435
    21  H    1.097221   2.091000   3.143269   8.482317   8.343274
    22  H    1.094976   2.089363   3.144536   7.825075   7.868414
                   16         17         18         19         20
    16  H    0.000000
    17  H    3.831592   0.000000
    18  H    6.275753   2.920379   0.000000
    19  H    7.271773   5.966910   4.320429   0.000000
    20  H    5.335263   5.355696   5.029162   2.480054   0.000000
    21  H    8.637579   6.147036   3.539109   2.726596   4.899165
    22  H    8.334621   5.270407   2.369688   3.782297   5.572929
                   21         22
    21  H    0.000000
    22  H    1.760938   0.000000
 Stoichiometry    C10H9N3
 Framework group  C1[X(C10H9N3)]
 Deg. of freedom    60
 Full point group                 C1      NOp   1
 Largest Abelian subgroup         C1      NOp   1
 Largest concise Abelian subgroup C1      NOp   1
                         Standard orientation:                         
 ---------------------------------------------------------------------
 Center     Atomic      Atomic             Coordinates (Angstroms)
 Number     Number       Type             X           Y           Z
 ---------------------------------------------------------------------
      1          6           0        4.379826   -0.406570    0.401221
      2          6           0        2.936048   -0.117908    0.185633
      3          7           0        2.381019    1.076220    0.146204
      4          6           0        1.032373    0.848683   -0.068710
      5          6           0        0.773353   -0.537394   -0.163214
      6          7           0        2.011595   -1.130653    0.001214
      7          6           0       -0.503793   -1.057759   -0.371185
      8          6           0       -1.549562   -0.140537   -0.488192
      9          6           0       -1.305767    1.246317   -0.400369
     10          6           0       -0.028554    1.754988   -0.190426
     11          6           0       -2.964932   -0.644154   -0.706217
     12          6           0       -3.852482   -0.328728    0.432878
     13          7           0       -4.524641   -0.067964    1.329036
     14          1           0        4.530239   -1.083538    1.250923
     15          1           0        4.832720   -0.871343   -0.483604
     16          1           0        4.910699    0.524613    0.606633
     17          1           0        2.207477   -2.121126   -0.004717
     18          1           0       -0.681135   -2.127372   -0.434252
     19          1           0       -2.137472    1.939845   -0.488388
     20          1           0        0.150101    2.822388   -0.115836
     21          1           0       -3.407289   -0.198559   -1.606029
     22          1           0       -2.980218   -1.729750   -0.848423
 ---------------------------------------------------------------------
 Rotational constants (GHZ):           2.5439489           0.4011089           0.3712036
 Standard basis: 6-31G(d) (6D, 7F)
 There are   213 symmetry adapted cartesian basis functions of A   symmetry.
 There are   213 symmetry adapted basis functions of A   symmetry.
   213 basis functions,   400 primitive gaussians,   213 cartesian basis functions
    45 alpha electrons       45 beta electrons
       nuclear repulsion energy       697.1083975255 Hartrees.
 NAtoms=   22 NActive=   22 NUniq=   22 SFac= 1.00D+00 NAtFMM=   60 NAOKFM=F Big=F
 Integral buffers will be    131072 words long.
 Raffenetti 2 integral format.
 Two-electron integral symmetry is turned on.
 Nuclear repulsion after empirical dispersion term =      697.0659316905 Hartrees.
 One-electron integrals computed using PRISM.
 NBasis=   213 RedAO= T EigKep=  3.67D-04  NBF=   213
 NBsUse=   213 1.00D-06 EigRej= -1.00D+00 NBFU=   213
 Initial guess from the checkpoint file:  "JID_3256.chk"
 B after Tr=     0.000000    0.000000   -0.000000
         Rot=    0.999997   -0.001202   -0.001907    0.000151 Ang=  -0.26 deg.
 ExpMin= 1.61D-01 ExpMax= 4.17D+03 ExpMxC= 6.27D+02 IAcc=2 IRadAn=         4 AccDes= 0.00D+00
 Harris functional with IExCor=  402 and IRadAn=       4 diagonalized for initial guess.
 HarFok:  IExCor=  402 AccDes= 0.00D+00 IRadAn=         4 IDoV= 1 UseB2=F ITyADJ=14
 ICtDFT=  3500011 ScaDFX=  1.000000  1.000000  1.000000  1.000000
 FoFCou: FMM=F IPFlag=           0 FMFlag=      100000 FMFlg1=           0
         NFxFlg=           0 DoJE=T BraDBF=F KetDBF=T FulRan=T
         wScrn=  0.000000 ICntrl=       500 IOpCl=  0 I1Cent=   200000004 NGrid=           0
         NMat0=    1 NMatS0=      1 NMatT0=    0 NMatD0=    1 NMtDS0=    0 NMtDT0=    0
 Petite list used in FoFCou.
 Keep R1 ints in memory in canonical form, NReq=264627747.
 Requested convergence on RMS density matrix=1.00D-08 within  32 cycles.
 Requested convergence on MAX density matrix=1.00D-06.
 Requested convergence on             energy=1.00D-06.
 No special actions if energy rises.
 Integral accuracy reduced to 1.0D-05 until final iterations.
 Initial convergence to 1.0D-05 achieved.  Increase integral accuracy.
 SCF Done:  E(RB3LYP) =  -550.785188650     A.U. after   13 cycles
            NFock= 13  Conv=0.73D-08     -V/T= 2.0096
 QCSCF skips out because SCF is already converged.
 Calling FoFJK, ICntrl=      2127 FMM=F ISym2X=0 I1Cent= 0 IOpClX= 0 NMat=1 NMatS=1 NMatT=0.
 ***** Axes restored to original set *****
 -------------------------------------------------------------------
 Center     Atomic                   Forces (Hartrees/Bohr)
 Number     Number              X              Y              Z
 -------------------------------------------------------------------
      1        6          -0.002731464   -0.000579538   -0.000181813
      2        6           0.004182184   -0.003698565   -0.000288522
      3        7          -0.006075152    0.002183827    0.000606970
      4        6           0.003550262   -0.001801501   -0.000398916
      5        6           0.000970094    0.003429179    0.000241594
      6        7          -0.000614613    0.000934545   -0.000007061
      7        6           0.000136663   -0.002682715   -0.000084336
      8        6          -0.002114319    0.002028389   -0.000236757
      9        6          -0.001409367   -0.002491083   -0.000164632
     10        6           0.000151156    0.001912586    0.000299882
     11        6           0.005023259   -0.001720821    0.005091473
     12        6          -0.015995877    0.007672233   -0.024528082
     13        7           0.013436657   -0.006798956    0.020711682
     14        1           0.000033918    0.000422889   -0.000188747
     15        1           0.000009246    0.000407624    0.000255045
     16        1           0.001166195   -0.000293887   -0.000202016
     17        1           0.000025982   -0.000527528    0.000110018
     18        1           0.000619161    0.000204329    0.000114955
     19        1           0.000787260    0.001176095    0.000324200
     20        1          -0.000058387   -0.000002184   -0.000208825
     21        1          -0.000101608    0.000100207   -0.000399457
     22        1          -0.000991251    0.000124876   -0.000866654
 -------------------------------------------------------------------
 Cartesian Forces:  Max     0.024528082 RMS     0.005181504

 GradGradGradGradGradGradGradGradGradGradGradGradGradGradGradGradGradGrad
 Berny optimization.
 Using GEDIIS/GDIIS optimizer.
 FormGI is forming the generalized inverse of G from B-inverse, IUseBI=4.
 Internal  Forces:  Max     0.025603667 RMS     0.002595177
 Search for a local minimum.
 Step number   2 out of a maximum of  120
 All quantities printed in internal units (Hartrees-Bohrs-Radians)
 Mixed Optimization -- RFO/linear search
 Update second derivatives using D2CorX and points    1    2
 DE= -2.20D-02 DEPred=-2.29D-02 R= 9.58D-01
 TightC=F SS=  1.41D+00  RLast= 2.52D-01 DXNew= 5.0454D-01 7.5513D-01
 Trust test= 9.58D-01 RLast= 2.52D-01 DXMaxT set to 5.05D-01
 ITU=  1  0
 Use linear search instead of GDIIS.
     Eigenvalues ---    0.00676   0.01121   0.01490   0.01699   0.02019
     Eigenvalues ---    0.02044   0.02094   0.02095   0.02096   0.02097
     Eigenvalues ---    0.02128   0.02154   0.02167   0.02381   0.03531
     Eigenvalues ---    0.03537   0.06997   0.07375   0.07528   0.07585
     Eigenvalues ---    0.15938   0.15999   0.15999   0.16000   0.16000
     Eigenvalues ---    0.16000   0.16000   0.16000   0.16049   0.22288
     Eigenvalues ---    0.22444   0.23480   0.23839   0.24656   0.24976
     Eigenvalues ---    0.25000   0.25000   0.30008   0.31657   0.34074
     Eigenvalues ---    0.34088   0.34298   0.34303   0.34308   0.34896
     Eigenvalues ---    0.35315   0.35383   0.35483   0.39350   0.41710
     Eigenvalues ---    0.43803   0.44896   0.45499   0.46091   0.46114
     Eigenvalues ---    0.46401   0.49793   0.50693   0.60599   0.95707
 RFO step:  Lambda=-7.35699250D-04 EMin= 6.75647320D-03
 Quartic linear search produced a step of -0.07173.
 Iteration  1 RMS(Cart)=  0.02492863 RMS(Int)=  0.00019414
 Iteration  2 RMS(Cart)=  0.00036404 RMS(Int)=  0.00001383
 Iteration  3 RMS(Cart)=  0.00000006 RMS(Int)=  0.00001383
 Variable       Old X    -DE/DX   Delta X   Delta X   Delta X     New X
                                 (Linear)    (Quad)   (Total)
    R1        2.81201   0.00151  -0.00202   0.00789   0.00587   2.81788
    R2        2.07259   0.00003  -0.00031   0.00068   0.00037   2.07296
    R3        2.07357  -0.00000  -0.00039   0.00076   0.00037   2.07395
    R4        2.06242  -0.00016   0.00042  -0.00125  -0.00083   2.06159
    R5        2.48953  -0.00401  -0.00030  -0.00594  -0.00624   2.48329
    R6        2.61457   0.00115  -0.00178   0.00457   0.00279   2.61736
    R7        2.61630   0.00294  -0.00189   0.00871   0.00682   2.62313
    R8        2.67063   0.00161  -0.00328   0.00998   0.00670   2.67733
    R9        2.64681  -0.00078  -0.00020  -0.00104  -0.00124   2.64557
   R10        2.61318   0.00084  -0.00191   0.00506   0.00315   2.61633
   R11        2.63556  -0.00063  -0.00015  -0.00080  -0.00096   2.63461
   R12        1.90801  -0.00049  -0.00005  -0.00089  -0.00094   1.90706
   R13        2.63793  -0.00136   0.00126  -0.00523  -0.00398   2.63394
   R14        2.05233   0.00023  -0.00013   0.00084   0.00071   2.05305
   R15        2.66613   0.00008  -0.00049   0.00069   0.00020   2.66633
   R16        2.86868   0.00092  -0.00152   0.00579   0.00427   2.87295
   R17        2.62808  -0.00111   0.00123  -0.00460  -0.00337   2.62471
   R18        2.05317   0.00005   0.00038  -0.00060  -0.00022   2.05295
   R19        2.05000   0.00002  -0.00007   0.00021   0.00013   2.05014
   R20        2.79320  -0.00466   0.00568  -0.02607  -0.02039   2.77282
   R21        2.07345   0.00024  -0.00010   0.00086   0.00076   2.07421
   R22        2.06921   0.00023   0.00019   0.00024   0.00043   2.06964
   R23        2.17351   0.02560   0.01502   0.00744   0.02246   2.19597
    A1        1.94447   0.00020  -0.00068   0.00330   0.00262   1.94709
    A2        1.94529   0.00024  -0.00101   0.00417   0.00316   1.94845
    A3        1.91103  -0.00165   0.00153  -0.01399  -0.01246   1.89857
    A4        1.88250  -0.00029   0.00080  -0.00409  -0.00329   1.87921
    A5        1.89032   0.00085  -0.00043   0.00650   0.00608   1.89640
    A6        1.88851   0.00071  -0.00021   0.00447   0.00426   1.89277
    A7        2.20054  -0.00171   0.00106  -0.00787  -0.00680   2.19374
    A8        2.12422   0.00051   0.00016   0.00242   0.00258   2.12680
    A9        1.95842   0.00120  -0.00121   0.00545   0.00422   1.96265
   A10        1.84012   0.00015   0.00004  -0.00055  -0.00053   1.83959
   A11        1.92848  -0.00053   0.00052  -0.00190  -0.00138   1.92710
   A12        2.27182   0.00051  -0.00056   0.00160   0.00105   2.27287
   A13        2.08288   0.00001   0.00004   0.00030   0.00034   2.08322
   A14        1.82214  -0.00085  -0.00013  -0.00112  -0.00126   1.82088
   A15        2.14569  -0.00084   0.00087  -0.00502  -0.00416   2.14153
   A16        2.31534   0.00169  -0.00074   0.00616   0.00543   2.32077
   A17        1.87561   0.00002   0.00077  -0.00182  -0.00108   1.87453
   A18        2.20088  -0.00016  -0.00037   0.00004  -0.00033   2.20055
   A19        2.20667   0.00014  -0.00041   0.00184   0.00143   2.20810
   A20        2.04133   0.00048  -0.00028   0.00298   0.00267   2.04400
   A21        2.12428   0.00039  -0.00063   0.00443   0.00379   2.12807
   A22        2.11756  -0.00087   0.00090  -0.00735  -0.00646   2.11111
   A23        2.10740   0.00024  -0.00026   0.00081   0.00051   2.10791
   A24        2.08580   0.00066  -0.00010   0.00305   0.00295   2.08875
   A25        2.08997  -0.00091   0.00036  -0.00381  -0.00346   2.08651
   A26        2.12661  -0.00013  -0.00074   0.00051  -0.00025   2.12636
   A27        2.08305  -0.00141   0.00148  -0.01199  -0.01052   2.07253
   A28        2.07348   0.00154  -0.00074   0.01156   0.01082   2.08429
   A29        2.06245   0.00024   0.00036   0.00048   0.00082   2.06327
   A30        2.10129  -0.00017  -0.00032  -0.00013  -0.00046   2.10084
   A31        2.11942  -0.00006  -0.00004  -0.00030  -0.00035   2.11907
   A32        1.95884   0.00068  -0.00047   0.00438   0.00391   1.96275
   A33        1.93794  -0.00022  -0.00223   0.00505   0.00282   1.94076
   A34        1.93969  -0.00150  -0.00023  -0.00783  -0.00805   1.93164
   A35        1.87889   0.00003   0.00210  -0.00521  -0.00311   1.87578
   A36        1.87892   0.00088   0.00107   0.00342   0.00449   1.88341
   A37        1.86555   0.00018  -0.00010   0.00002  -0.00006   1.86549
   A38        3.11984   0.00081   0.00156   0.00644   0.00800   3.12784
   A39        3.14806  -0.00046  -0.00046  -0.00764  -0.00811   3.13995
    D1        2.17179   0.00004   0.00013  -0.00428  -0.00415   2.16764
    D2       -0.96841  -0.00005   0.00014  -0.00837  -0.00822  -0.97663
    D3       -2.00768  -0.00002   0.00001  -0.00437  -0.00436  -2.01204
    D4        1.13531  -0.00011   0.00002  -0.00846  -0.00843   1.12688
    D5        0.08119  -0.00006   0.00010  -0.00531  -0.00522   0.07597
    D6       -3.05901  -0.00015   0.00011  -0.00940  -0.00929  -3.06830
    D7       -3.13685  -0.00021   0.00053  -0.01541  -0.01487   3.13147
    D8        0.00346  -0.00014   0.00053  -0.01165  -0.01112  -0.00766
    D9        3.13629   0.00023  -0.00056   0.01709   0.01654  -3.13035
   D10        0.00201   0.00013  -0.00025   0.00912   0.00890   0.01091
   D11       -0.00408   0.00016  -0.00056   0.01352   0.01297   0.00889
   D12       -3.13837   0.00006  -0.00025   0.00556   0.00533  -3.13304
   D13       -0.00159   0.00006  -0.00031   0.00558   0.00525   0.00366
   D14        3.13602   0.00006  -0.00025   0.00568   0.00544   3.14146
   D15       -0.00080   0.00003  -0.00002   0.00235   0.00234   0.00153
   D16        3.13515   0.00008  -0.00003   0.00428   0.00425   3.13940
   D17       -3.13890   0.00003  -0.00007   0.00225   0.00217  -3.13673
   D18       -0.00295   0.00008  -0.00009   0.00418   0.00409   0.00113
   D19       -3.13645  -0.00008   0.00012  -0.00570  -0.00558   3.14115
   D20       -0.00091   0.00004  -0.00014   0.00336   0.00322   0.00231
   D21        0.00086  -0.00008   0.00019  -0.00559  -0.00539  -0.00453
   D22        3.13640   0.00004  -0.00007   0.00346   0.00342   3.13981
   D23        0.00279  -0.00012   0.00033  -0.00906  -0.00870  -0.00591
   D24        3.13704  -0.00001   0.00002  -0.00107  -0.00102   3.13602
   D25       -3.13236  -0.00016   0.00034  -0.01120  -0.01085   3.13997
   D26        0.00189  -0.00005   0.00003  -0.00321  -0.00317  -0.00129
   D27        0.00127   0.00007  -0.00031   0.00725   0.00693   0.00820
   D28       -3.13457  -0.00006   0.00007  -0.00393  -0.00390  -3.13847
   D29        3.13543   0.00012  -0.00033   0.00975   0.00943  -3.13833
   D30       -0.00041  -0.00001   0.00005  -0.00144  -0.00141  -0.00182
   D31        0.00241  -0.00022   0.00061  -0.01718  -0.01656  -0.01415
   D32       -3.13444  -0.00030   0.00085  -0.02717  -0.02632   3.12242
   D33        3.13827  -0.00008   0.00022  -0.00600  -0.00580   3.13247
   D34        0.00142  -0.00016   0.00047  -0.01599  -0.01556  -0.01414
   D35       -0.00454   0.00022  -0.00053   0.01635   0.01581   0.01126
   D36       -3.13491   0.00011  -0.00024   0.00788   0.00768  -3.12723
   D37        3.13229   0.00031  -0.00078   0.02639   0.02558  -3.12532
   D38        0.00192   0.00020  -0.00049   0.01792   0.01745   0.01937
   D39        2.00527   0.00005   0.00012  -0.01011  -0.01000   1.99528
   D40       -2.17403   0.00040   0.00093  -0.01023  -0.00930  -2.18332
   D41       -0.09988  -0.00049  -0.00076  -0.01201  -0.01277  -0.11265
   D42       -1.13162  -0.00004   0.00037  -0.02002  -0.01965  -1.15127
   D43        0.97226   0.00032   0.00117  -0.02013  -0.01895   0.95331
   D44        3.04641  -0.00058  -0.00051  -0.02192  -0.02243   3.02398
   D45        0.00279  -0.00006   0.00012  -0.00440  -0.00429  -0.00150
   D46       -3.13269  -0.00019   0.00038  -0.01355  -0.01318   3.13732
   D47        3.13321   0.00003  -0.00015   0.00388   0.00376   3.13698
   D48       -0.00226  -0.00010   0.00011  -0.00527  -0.00514  -0.00739
         Item               Value     Threshold  Converged?
 Maximum Force            0.025604     0.000450     NO 
 RMS     Force            0.002595     0.000300     NO 
 Maximum Displacement     0.094384     0.001800     NO 
 RMS     Displacement     0.024981     0.001200     NO 
 Predicted change in Energy=-4.720331D-04
 GradGradGradGradGradGradGradGradGradGradGradGradGradGradGradGradGradGrad

                          Input orientation:                          
 ---------------------------------------------------------------------
 Center     Atomic      Atomic             Coordinates (Angstroms)
 Number     Number       Type             X           Y           Z
 ---------------------------------------------------------------------
      1          6           0       -3.430190    0.033130   -0.038325
      2          6           0       -1.940156   -0.022761   -0.053518
      3          7           0       -1.215044   -1.110795   -0.184899
      4          6           0        0.104282   -0.680266   -0.155891
      5          6           0        0.161728    0.726223    0.004604
      6          7           0       -1.164519    1.117837    0.072108
      7          6           0        1.364405    1.428448    0.069183
      8          6           0        2.539545    0.687157   -0.041620
      9          6           0        2.497009   -0.714861   -0.194404
     10          6           0        1.295524   -1.409158   -0.253850
     11          6           0        3.883521    1.396823   -0.004107
     12          6           0        4.673738    1.038508    1.179181
     13          7           0        5.293102    0.740023    2.116023
     14          1           0       -3.806103    0.519399    0.870281
     15          1           0       -3.823160    0.587792   -0.899950
     16          1           0       -3.820243   -0.985002   -0.076125
     17          1           0       -1.507272    2.059597    0.190605
     18          1           0        1.393882    2.507118    0.195362
     19          1           0        3.433250   -1.261491   -0.264094
     20          1           0        1.270662   -2.486927   -0.375391
     21          1           0        4.485807    1.153197   -0.888796
     22          1           0        3.747060    2.483489   -0.001597
 ---------------------------------------------------------------------
                    Distance matrix (angstroms):
                    1          2          3          4          5
     1  C    0.000000
     2  C    1.491160   0.000000
     3  N    2.497383   1.314103   0.000000
     4  C    3.607666   2.150005   1.388098   0.000000
     5  C    3.658429   2.232100   2.303486   1.416782   0.000000
     6  N    2.514369   1.385048   2.243972   2.212469   1.384504
     7  C    4.994659   3.611258   3.628480   2.466829   1.394174
     8  C    6.005456   4.535619   4.165345   2.795248   2.378587
     9  C    5.976248   4.493026   3.733121   2.393287   2.751338
    10  C    4.945607   3.525884   2.529175   1.399978   2.431490
    11  C    7.439839   5.994404   5.684734   4.315088   3.781735
    12  C    8.256317   6.810979   6.415448   5.061278   4.672835
    13  N    9.013143   7.590044   7.146729   5.839749   5.548809
    14  H    1.096965   2.151535   3.237982   4.217029   4.066431
    15  H    1.097485   2.152887   3.193550   4.193613   4.088608
    16  H    1.090946   2.112143   2.610501   3.937146   4.334848
    17  H    2.802962   2.140841   3.205899   3.197502   2.144306
    18  H    5.426500   4.192617   4.476649   3.456279   2.173977
    19  H    6.988121   5.518359   4.651411   3.381059   3.837455
    20  H    5.344372   4.060181   2.847589   2.161630   3.420302
    21  H    8.039955   6.585861   6.174207   4.805882   4.436003
    22  H    7.584098   6.215176   6.129841   4.827317   3.992822
                    6          7          8          9         10
     6  N    0.000000
     7  C    2.547930   0.000000
     8  C    3.730752   1.393823   0.000000
     9  C    4.103242   2.438450   1.410959   0.000000
    10  C    3.541718   2.856764   2.446868   1.388937   0.000000
    11  C    5.056318   2.520380   1.520298   2.533345   3.825392
    12  C    5.942824   3.512241   2.483664   3.114352   4.411006
    13  N    6.783893   4.483095   3.498614   3.908055   5.120147
    14  H    2.823681   5.310582   6.413030   6.510466   5.568627
    15  H    2.879968   5.343852   6.421107   6.491473   5.532285
    16  H    3.390690   5.720702   6.576033   6.324131   5.136396
    17  H    1.009174   2.942724   4.279515   4.886729   4.481682
    18  H    2.913882   1.086425   2.163553   3.427820   3.943181
    19  H    5.187844   3.409833   2.155327   1.086375   2.142845
    20  H    4.373179   3.941649   3.434571   2.162615   1.084886
    21  H    5.731559   3.276680   2.173209   2.815518   4.140860
    22  H    5.098436   2.606754   2.164833   3.439367   4.607207
                   11         12         13         14         15
    11  C    0.000000
    12  C    1.467312   0.000000
    13  N    2.629307   1.162057   0.000000
    14  H    7.788758   8.501329   9.186734   0.000000
    15  H    7.800641   8.759178   9.603411   1.771634   0.000000
    16  H    8.063886   8.821457   9.530702   1.777388   1.775494
    17  H    5.434873   6.342302   7.189827   2.849349   2.952771
    18  H    2.733285   3.725879   4.692066   5.607707   5.665778
    19  H    2.708684   2.985272   3.623543   7.540995   7.515294
    20  H    4.695572   5.140653   5.727161   6.030194   5.972946
    21  H    1.097623   2.079665   3.138690   8.500107   8.328189
    22  H    1.095204   2.083492   3.148687   7.852903   7.855503
[...]
   125    N    6  pz     Ryd( 3p)     0.00143       0.36856
   126    N    6  pz     Ryd( 4p)     0.00054       0.89418
   127    N    6  pz     Ryd( 5p)     0.00001       3.90604
   128    N    6  dxy    Ryd( 3d)     0.00047       3.19952
   129    N    6  dxz    Ryd( 3d)     0.00024       2.26847
   130    N    6  dyz    Ryd( 3d)     0.00018       2.32180
   131    N    6  dx2y2  Ryd( 3d)     0.00046       3.00189
   132    N    6  dz2    Ryd( 3d)     0.00029       2.84614
 
   133    C    7  S      Cor( 1S)     0.99947      -9.93514
   134    C    7  S      Val( 2S)     0.46346      -0.05575
   135    C    7  S      Ryd( 3S)     0.00131       1.35713
   136    C    7  S      Ryd( 4S)     0.00090       5.58257
   137    C    7  S      Ryd( 5S)     0.00007      12.15236
   138    C    7  px     Val( 2p)     0.53577       0.04961
   139    C    7  px     Ryd( 3p)     0.00142       1.03828
   140    C    7  px     Ryd( 5p)     0.00021       4.04220
   141    C    7  px     Ryd( 4p)     0.00003       2.75720
   142    C    7  py     Val( 2p)     0.58789       0.03378
   143    C    7  py     Ryd( 3p)     0.00208       1.11322
   144    C    7  py     Ryd( 5p)     0.00015       3.97214
   145    C    7  py     Ryd( 4p)     0.00003       2.53842
   146    C    7  pz     Val( 2p)     0.52057      -0.01866
   147    C    7  pz     Ryd( 3p)     0.00043       0.65044
   148    C    7  pz     Ryd( 4p)     0.00029       0.68165
   149    C    7  pz     Ryd( 5p)     0.00005       2.66613
   150    C    7  dxy    Ryd( 3d)     0.00036       2.79627
   151    C    7  dxz    Ryd( 3d)     0.00029       1.76350
   152    C    7  dyz    Ryd( 3d)     0.00025       1.74879
   153    C    7  dx2y2  Ryd( 3d)     0.00043       2.83916
   154    C    7  dz2    Ryd( 3d)     0.00024       2.30687
 
   155    C    8  S      Cor( 1S)     0.99952      -9.95942
   156    C    8  S      Val( 2S)     0.43924      -0.05569
   157    C    8  S      Ryd( 3S)     0.00171       2.86833
   158    C    8  S      Ryd( 4S)     0.00051       3.66182
   159    C    8  S      Ryd( 5S)     0.00005      11.02531
   160    C    8  px     Val( 2p)     0.50366       0.03789
   161    C    8  px     Ryd( 3p)     0.00230       1.55580
   162    C    8  px     Ryd( 4p)     0.00031       2.09699
   163    C    8  px     Ryd( 5p)     0.00003       2.32576
   164    C    8  py     Val( 2p)     0.54469       0.03460
   165    C    8  py     Ryd( 3p)     0.00199       1.47834
   166    C    8  py     Ryd( 5p)     0.00011       3.68076
   167    C    8  py     Ryd( 4p)     0.00005       2.35580
   168    C    8  pz     Val( 2p)     0.52335      -0.01799
   169    C    8  pz     Ryd( 3p)     0.00118       0.57230
   170    C    8  pz     Ryd( 4p)     0.00044       0.87319
   171    C    8  pz     Ryd( 5p)     0.00007       2.33410
   172    C    8  dxy    Ryd( 3d)     0.00034       2.90880
   173    C    8  dxz    Ryd( 3d)     0.00028       1.78548
   174    C    8  dyz    Ryd( 3d)     0.00041       1.77045
   175    C    8  dx2y2  Ryd( 3d)     0.00036       2.70237
   176    C    8  dz2    Ryd( 3d)     0.00021       2.18814
 
   177    C    9  S      Cor( 1S)     0.99953      -9.93451
   178    C    9  S      Val( 2S)     0.46607      -0.06604
   179    C    9  S      Ryd( 3S)     0.00073       1.51292
   180    C    9  S      Ryd( 4S)     0.00104       2.91537
   181    C    9  S      Ryd( 5S)     0.00002      15.97852
   182    C    9  px     Val( 2p)     0.55135       0.04666
   183    C    9  px     Ryd( 3p)     0.00242       1.75654
   184    C    9  px     Ryd( 5p)     0.00029       3.42573
   185    C    9  px     Ryd( 4p)     0.00004       3.03059
   186    C    9  py     Val( 2p)     0.56119       0.04795
   187    C    9  py     Ryd( 3p)     0.00252       1.82627
   188    C    9  py     Ryd( 5p)     0.00020       5.04428
   189    C    9  py     Ryd( 4p)     0.00002       3.05603
   190    C    9  pz     Val( 2p)     0.52428      -0.01693
   191    C    9  pz     Ryd( 3p)     0.00097       0.55422
   192    C    9  pz     Ryd( 4p)     0.00033       0.67296
   193    C    9  pz     Ryd( 5p)     0.00003       2.61839
   194    C    9  dxy    Ryd( 3d)     0.00042       2.72856
   195    C    9  dxz    Ryd( 3d)     0.00026       1.75295
   196    C    9  dyz    Ryd( 3d)     0.00020       1.74081
   197    C    9  dx2y2  Ryd( 3d)     0.00037       2.78154
   198    C    9  dz2    Ryd( 3d)     0.00024       2.18400
 
   199    C   10  S      Cor( 1S)     0.99952      -9.93498
   200    C   10  S      Val( 2S)     0.46977      -0.06392
   201    C   10  S      Ryd( 4S)     0.00090       5.81848
   202    C   10  S      Ryd( 3S)     0.00067       2.13938
   203    C   10  S      Ryd( 5S)     0.00002      12.83962
   204    C   10  px     Val( 2p)     0.53903       0.05132
   205    C   10  px     Ryd( 4p)     0.00209       1.15819
   206    C   10  px     Ryd( 3p)     0.00002       0.57573
   207    C   10  px     Ryd( 5p)     0.00005       3.09016
   208    C   10  py     Val( 2p)     0.57607       0.04635
   209    C   10  py     Ryd( 4p)     0.00271       1.34630
   210    C   10  py     Ryd( 3p)     0.00003       0.65710
   211    C   10  py     Ryd( 5p)     0.00005       2.95940
   212    C   10  pz     Val( 2p)     0.50063      -0.01215
   213    C   10  pz     Ryd( 4p)     0.00046       0.74404
   214    C   10  pz     Ryd( 3p)     0.00016       0.36858
   215    C   10  pz     Ryd( 5p)     0.00001       2.75744
   216    C   10  dxy    Ryd( 3d)     0.00043       2.72936
   217    C   10  dxz    Ryd( 3d)     0.00031       1.76323
   218    C   10  dyz    Ryd( 3d)     0.00023       1.73267
   219    C   10  dx2y2  Ryd( 3d)     0.00031       2.69200
   220    C   10  dz2    Ryd( 3d)     0.00023       2.21268
 
   221    C   11  S      Cor( 1S)     0.99951      -9.98787
   222    C   11  S      Val( 2S)     0.51620      -0.16220
   223    C   11  S      Ryd( 3S)     0.00171       1.52174
   224    C   11  S      Ryd( 4S)     0.00071       1.98370
   225    C   11  S      Ryd( 5S)     0.00004      20.52632
   226    C   11  px     Val( 2p)     0.55516      -0.02513
   227    C   11  px     Ryd( 3p)     0.00045       0.98469
   228    C   11  px     Ryd( 5p)     0.00035       2.62583
   229    C   11  px     Ryd( 4p)     0.00004       2.37610
   230    C   11  py     Val( 2p)     0.55205      -0.03412
   231    C   11  py     Ryd( 3p)     0.00170       0.93396
   232    C   11  py     Ryd( 5p)     0.00049       2.51997
   233    C   11  py     Ryd( 4p)     0.00001       2.15111
   234    C   11  pz     Val( 2p)     0.61883      -0.04050
   235    C   11  pz     Ryd( 3p)     0.00077       0.74395
   236    C   11  pz     Ryd( 4p)     0.00004       1.39188
   237    C   11  pz     Ryd( 5p)     0.00001       2.42142
   238    C   11  dxy    Ryd( 3d)     0.00033       2.22330
   239    C   11  dxz    Ryd( 3d)     0.00055       2.03330
   240    C   11  dyz    Ryd( 3d)     0.00028       2.13231
   241    C   11  dx2y2  Ryd( 3d)     0.00039       2.48969
   242    C   11  dz2    Ryd( 3d)     0.00034       2.28858
 
   243    C   12  S      Cor( 1S)     0.99967      -9.99818
   244    C   12  S      Val( 2S)     0.42685      -0.05446
   245    C   12  S      Ryd( 4S)     0.00473       1.67698
   246    C   12  S      Ryd( 3S)     0.00028       0.73827
   247    C   12  S      Ryd( 5S)     0.00002      19.79990
   248    C   12  px     Val( 2p)     0.45718       0.00345
   249    C   12  px     Ryd( 3p)     0.00224       0.96016
   250    C   12  px     Ryd( 4p)     0.00003       1.03598
   251    C   12  px     Ryd( 5p)     0.00003       2.26083
   252    C   12  py     Val( 2p)     0.48552       0.11686
   253    C   12  py     Ryd( 4p)     0.00702       1.36196
   254    C   12  py     Ryd( 3p)     0.00006       0.91338
   255    C   12  py     Ryd( 5p)     0.00002       2.21038
   256    C   12  pz     Val( 2p)     0.44947      -0.01384
   257    C   12  pz     Ryd( 3p)     0.00043       0.75002
   258    C   12  pz     Ryd( 4p)     0.00023       0.90933
   259    C   12  pz     Ryd( 5p)     0.00001       2.17798
   260    C   12  dxy    Ryd( 3d)     0.00039       2.62073
   261    C   12  dxz    Ryd( 3d)     0.00006       1.58022
   262    C   12  dyz    Ryd( 3d)     0.00057       2.22554
   263    C   12  dx2y2  Ryd( 3d)     0.00033       2.78121
   264    C   12  dz2    Ryd( 3d)     0.00007       2.10058
 
   265    N   13  S      Cor( 1S)     0.99979     -13.97279
   266    N   13  S      Val( 2S)     0.79291      -0.48601
   267    N   13  S      Ryd( 4S)     0.00346       2.33665
   268    N   13  S      Ryd( 3S)     0.00002       1.27029
   269    N   13  S      Ryd( 5S)     0.00000      35.46547
   270    N   13  px     Val( 2p)     0.57851      -0.06829
   271    N   13  px     Ryd( 3p)     0.00023       0.79895
   272    N   13  px     Ryd( 4p)     0.00002       1.02959
   273    N   13  px     Ryd( 5p)     0.00001       3.95324
   274    N   13  py     Val( 2p)     0.74027      -0.09599
   275    N   13  py     Ryd( 4p)     0.00073       1.02694
   276    N   13  py     Ryd( 3p)     0.00002       0.72628
   277    N   13  py     Ryd( 5p)     0.00007       4.48767
   278    N   13  pz     Val( 2p)     0.56176      -0.06511
   279    N   13  pz     Ryd( 3p)     0.00017       0.71803
   280    N   13  pz     Ryd( 4p)     0.00011       0.72310
   281    N   13  pz     Ryd( 5p)     0.00000       3.86850
   282    N   13  dxy    Ryd( 3d)     0.00195       2.38876
   283    N   13  dxz    Ryd( 3d)     0.00021       2.07649
   284    N   13  dyz    Ryd( 3d)     0.00163       2.16739
   285    N   13  dx2y2  Ryd( 3d)     0.00201       2.49027
   286    N   13  dz2    Ryd( 3d)     0.00070       2.28175
 
   287    H   14  S      Val( 1S)     0.38571       0.11962
   288    H   14  S      Ryd( 2S)     0.00147       0.27424
   289    H   14  S      Ryd( 3S)     0.00038       0.97917
   290    H   14  S      Ryd( 4S)     0.00004       1.64398
   291    H   14  px     Ryd( 2p)     0.00008       1.85990
   292    H   14  py     Ryd( 2p)     0.00008       2.19138
   293    H   14  pz     Ryd( 2p)     0.00010       2.47034
 
   294    H   15  S      Val( 1S)     0.38571       0.11962
   295    H   15  S      Ryd( 2S)     0.00147       0.27420
   296    H   15  S      Ryd( 3S)     0.00038       0.97932
   297    H   15  S      Ryd( 4S)     0.00004       1.64401
   298    H   15  px     Ryd( 2p)     0.00008       1.86000
   299    H   15  py     Ryd( 2p)     0.00008       2.19063
   300    H   15  pz     Ryd( 2p)     0.00010       2.47100
 
   301    H   16  S      Val( 1S)     0.38603       0.13027
   302    H   16  S      Ryd( 2S)     0.00068       0.48405
   303    H   16  S      Ryd( 4S)     0.00028       1.50341
   304    H   16  S      Ryd( 3S)     0.00002       1.11908
   305    H   16  px     Ryd( 2p)     0.00009       2.29675
   306    H   16  py     Ryd( 2p)     0.00010       2.37342
   307    H   16  pz     Ryd( 2p)     0.00005       1.83249
 
   308    H   17  S      Val( 1S)     0.26724       0.12486
   309    H   17  S      Ryd( 2S)     0.01809       0.35406
   310    H   17  S      Ryd( 3S)     0.00041       1.69297
   311    H   17  S      Ryd( 4S)     0.00022       1.80579
   312    H   17  px     Ryd( 2p)     0.00005       2.12277
   313    H   17  py     Ryd( 2p)     0.00026       2.88608
   314    H   17  pz     Ryd( 2p)     0.00024       1.68290
 
   315    H   18  S      Val( 1S)     0.38625       0.14313
   316    H   18  S      Ryd( 2S)     0.00039       0.54295
   317    H   18  S      Ryd( 3S)     0.00057       1.30765
   318    H   18  S      Ryd( 4S)     0.00010       2.75965
   319    H   18  px     Ryd( 2p)     0.00009       2.30215
   320    H   18  py     Ryd( 2p)     0.00023       2.87756
   321    H   18  pz     Ryd( 2p)     0.00011       1.70990
 
   322    H   19  S      Val( 1S)     0.39808       0.13292
   323    H   19  S      Ryd( 2S)     0.00073       0.33114
   324    H   19  S      Ryd( 4S)     0.00028       1.61707
   325    H   19  S      Ryd( 3S)     0.00002       0.98700
   326    H   19  px     Ryd( 2p)     0.00011       2.37892
   327    H   19  py     Ryd( 2p)     0.00016       2.56123
   328    H   19  pz     Ryd( 2p)     0.00011       1.70329
 
   329    H   20  S      Val( 1S)     0.39494       0.14518
   330    H   20  S      Ryd( 2S)     0.00031       0.63425
   331    H   20  S      Ryd( 3S)     0.00049       1.82707
   332    H   20  S      Ryd( 4S)     0.00012       3.22411
   333    H   20  px     Ryd( 2p)     0.00008       2.27365
   334    H   20  py     Ryd( 2p)     0.00019       2.74453
   335    H   20  pz     Ryd( 2p)     0.00009       1.70256
 
   336    H   21  S      Val( 1S)     0.37223       0.10455
   337    H   21  S      Ryd( 2S)     0.00102       0.30251
   338    H   21  S      Ryd( 4S)     0.00059       1.45414
   339    H   21  S      Ryd( 3S)     0.00002       1.27389
   340    H   21  px     Ryd( 2p)     0.00009       2.03647
   341    H   21  py     Ryd( 2p)     0.00013       2.14540
   342    H   21  pz     Ryd( 2p)     0.00014       2.51113
 
   343    H   22  S      Val( 1S)     0.37224       0.10456
   344    H   22  S      Ryd( 2S)     0.00102       0.30255
   345    H   22  S      Ryd( 4S)     0.00059       1.45421
   346    H   22  S      Ryd( 3S)     0.00002       1.27369
   347    H   22  px     Ryd( 2p)     0.00009       2.03652
   348    H   22  py     Ryd( 2p)     0.00013       2.14583
   349    H   22  pz     Ryd( 2p)     0.00014       2.51065

 WARNING:  Population inversion found on atom  C    2
           Population inversion found on atom  N    3
           Population inversion found on atom  C    4
           Population inversion found on atom  C    5
           Population inversion found on atom  N    6
           Population inversion found on atom  C    7
           Population inversion found on atom  C    8
           Population inversion found on atom  C    9
           Population inversion found on atom  C   10
           Population inversion found on atom  C   11
           Population inversion found on atom  C   12
           Population inversion found on atom  N   13
           Population inversion found on atom  H   16
           Population inversion found on atom  H   18
           Population inversion found on atom  H   19
           Population inversion found on atom  H   20
           Population inversion found on atom  H   21
           Population inversion found on atom  H   22


 Summary of Natural Population Analysis:                  
                                                          
                                       Natural Population 
                Natural  -----------------------------------------------
    Atom  No    Charge         Core      Valence    Rydberg      Total
 -----------------------------------------------------------------------
      C    1   -0.30866      0.99962     2.30302    0.00602     3.30866
      C    2    0.21523      0.99963     1.76752    0.01762     2.78477
      N    3   -0.26249      0.99967     2.75346    0.00935     3.76249
      C    4    0.05603      0.99945     1.93177    0.01275     2.94397
      C    5    0.07056      0.99946     1.91790    0.01208     2.92944
      N    6   -0.27683      0.99963     2.76698    0.01022     3.77683
      C    7   -0.11571      0.99947     2.10770    0.00854     3.11571
      C    8   -0.02079      0.99952     2.01093    0.01035     3.02079
      C    9   -0.11252      0.99953     2.10289    0.01010     3.11252
      C   10   -0.09369      0.99952     2.08550    0.00867     3.09369
      C   11   -0.24998      0.99951     2.24224    0.00822     3.24998
      C   12    0.16481      0.99967     1.81901    0.01651     2.83519
      N   13   -0.18461      0.99979     2.67345    0.01137     3.68461
      H   14    0.11214      0.00000     0.38571    0.00215     0.38786
      H   15    0.11214      0.00000     0.38571    0.00215     0.38786
      H   16    0.11275      0.00000     0.38603    0.00122     0.38725
      H   17    0.21350      0.00000     0.26724    0.01926     0.28650
      H   18    0.11227      0.00000     0.38625    0.00148     0.38773
      H   19    0.10052      0.00000     0.39808    0.00140     0.39948
      H   20    0.10377      0.00000     0.39494    0.00129     0.39623
      H   21    0.12578      0.00000     0.37223    0.00199     0.37422
      H   22    0.12578      0.00000     0.37224    0.00199     0.37422
 =======================================================================
   * Total *   -0.00000     12.99448    31.83079    0.17474    45.00000

                                 Natural Population      
 --------------------------------------------------------
   Core                      12.99448 ( 99.9575% of  13)
   Valence                   31.83079 ( 99.4712% of  32)
   Natural Minimal Basis     44.82526 ( 99.6117% of  45)
   Natural Rydberg Basis      0.17474 (  0.3883% of  45)
 --------------------------------------------------------

    Atom  No          Natural Electron Configuration
 ----------------------------------------------------------------------------
      C    1      [core]2S( 0.54)2p( 1.76)
      C    2      [core]2S( 0.41)2p( 1.36)3p( 0.01)
      N    3      [core]2S( 0.70)2p( 2.05)
      C    4      [core]2S( 0.42)2p( 1.51)4p( 0.01)
      C    5      [core]2S( 0.41)2p( 1.50)3p( 0.01)
      N    6      [core]2S( 0.62)2p( 2.15)
      C    7      [core]2S( 0.46)2p( 1.64)
      C    8      [core]2S( 0.44)2p( 1.57)3p( 0.01)
      C    9      [core]2S( 0.47)2p( 1.64)3p( 0.01)
      C   10      [core]2S( 0.47)2p( 1.62)4p( 0.01)
      C   11      [core]2S( 0.52)2p( 1.73)
      C   12      [core]2S( 0.43)2p( 1.39)4p( 0.01)
      N   13      [core]2S( 0.79)2p( 1.88)3d( 0.01)
      H   14            1S( 0.39)
      H   15            1S( 0.39)
      H   16            1S( 0.39)
      H   17            1S( 0.27)2S( 0.02)
      H   18            1S( 0.39)
      H   19            1S( 0.40)
      H   20            1S( 0.39)
      H   21            1S( 0.37)
      H   22            1S( 0.37)


 NBO analysis skipped by request.
 1\1\GINC-NODE102\SP\UB3LYP\6-311++G(d,p)\C10H9N3(1-,2)\VSC10255\09-Dec
 -2020\0\\# B3LYP/6-311++G(d,p) empiricaldispersion=gd3bj scf=xqc pop=n
 pa geom=check\\CID_45078489_JID_3256_Energie_anion\\-1,2\C,0,-3.382302
 7239,0.1247360721,0.0966325589\C,0,-1.9005566303,0.0086722669,-0.02850
 09601\N,0,-1.2582677971,-0.9807827651,-0.6050216161\C,0,0.0893115587,-
 0.6647250561,-0.4844057377\C,0,0.2482435135,0.5670785159,0.1940969522\
 N,0,-1.044386599,0.9739561833,0.4732282339\C,0,1.4952836427,1.13196950
 21,0.4571982766\C,0,2.6132512518,0.425742736,0.0186600068\C,0,2.470998
 2532,-0.804653993,-0.6597645752\C,0,1.2237723666,-1.3596860893,-0.9173
 427872\C,0,4.0286711317,0.9434216959,0.2486600212\C,0,4.0932557898,2.2
 227168768,0.9570296676\N,0,4.123207512,3.2370611423,1.5198536763\H,0,-
 3.6947844683,0.1677884699,1.1472069799\H,0,-3.7581529148,1.0274034593,
 -0.4004998964\H,0,-3.842388826,-0.7479621821,-0.3692527443\H,0,-1.3158
 967242,1.8186312212,0.9541670987\H,0,1.6002707042,2.0778741138,0.97894
 41423\H,0,3.3656207374,-1.3283092368,-0.9876755268\H,0,1.1213940919,-2
 .3055343035,-1.4391667213\H,0,4.6113972986,0.2101372249,0.8217921161\H
 ,0,4.5488888313,1.0619441455,-0.7110591654\\Version=ES64L-G16RevA.03\S
 tate=2-A\HF=-550.9243557\S2=0.750041\S2-1=0.\S2A=0.75\RMSD=2.955e-11\D
 ipole=1.1810154,-1.3456403,-0.7967807\Quadrupole=-21.9331449,6.0927531
 ,15.8403917,-1.030512,1.1536997,-7.8256767\PG=C01 [X(C10H9N3)]\\@


 ONE OF THE BENEFITS OF A COLLEGE EDUCATION
 IS TO SHOW THE BOY ITS LITTLE AVAIL 
                                    EMERSON IN 'CULTURE'
 Job cpu time:       0 days  0 hours 27 minutes 37.9 seconds.
 Elapsed time:       0 days  0 hours  7 minutes 18.0 seconds.
 File lengths (MBytes):  RWF=    172 Int=      0 D2E=      0 Chk=     16 Scr=      8
 Normal termination of Gaussian 16 at Wed Dec  9 23:00:42 2020.
