 Entering Gaussian System, Link 0=g16
 Initial command:
 /apps/brussel/CO7/broadwell/software/Gaussian/G16.A.03-intel-2017b/g16/l1.exe "/scratch/brussel/102/vsc10255/3544754[2431].master01.hydra.brussel.vsc/Gau-24547.inp" -scrdir="/scratch/brussel/102/vsc10255/3544754[2431].master01.hydra.brussel.vsc/"
 Entering Link 1 = /apps/brussel/CO7/broadwell/software/Gaussian/G16.A.03-intel-2017b/g16/l1.exe.bin PID=     24551.
  
 Copyright (c) 1988,1990,1992,1993,1995,1998,2003,2009,2016,
            Gaussian, Inc.  All Rights Reserved.
  
 This is part of the Gaussian(R) 16 program.  It is based on
 the Gaussian(R) 09 system (copyright 2009, Gaussian, Inc.),
 the Gaussian(R) 03 system (copyright 2003, Gaussian, Inc.),
 the Gaussian(R) 98 system (copyright 1998, Gaussian, Inc.),
 the Gaussian(R) 94 system (copyright 1995, Gaussian, Inc.),
 the Gaussian 92(TM) system (copyright 1992, Gaussian, Inc.),
 the Gaussian 90(TM) system (copyright 1990, Gaussian, Inc.),
 the Gaussian 88(TM) system (copyright 1988, Gaussian, Inc.),
 the Gaussian 86(TM) system (copyright 1986, Carnegie Mellon
 University), and the Gaussian 82(TM) system (copyright 1983,
 Carnegie Mellon University). Gaussian is a federally registered
 trademark of Gaussian, Inc.
  
 This software contains proprietary and confidential information,
 including trade secrets, belonging to Gaussian, Inc.
  
 This software is provided under written license and may be
 used, copied, transmitted, or stored only in accord with that
 written license.
  
 The following legend is applicable only to US Government
 contracts under FAR:
  
                    RESTRICTED RIGHTS LEGEND
  
 Use, reproduction and disclosure by the US Government is
 subject to restrictions as set forth in subparagraphs (a)
 and (c) of the Commercial Computer Software - Restricted
 Rights clause in FAR 52.227-19.
  
 Gaussian, Inc.
 340 Quinnipiac St., Bldg. 40, Wallingford CT 06492
  
  
 ---------------------------------------------------------------
 Warning -- This program may not be used in any manner that
 competes with the business of Gaussian, Inc. or will provide
 assistance to any competitor of Gaussian, Inc.  The licensee
 of this program is prohibited from giving any competitor of
 Gaussian, Inc. access to this program.  By using this program,
 the user acknowledges that Gaussian, Inc. is engaged in the
 business of creating and licensing software in the field of
 computational chemistry and represents and warrants to the
 licensee that it is not a competitor of Gaussian, Inc. and that
 it will not use this program in any manner prohibited above.
 ---------------------------------------------------------------
  

 Cite this work as:
 Gaussian 16, Revision A.03,
 M. J. Frisch, G. W. Trucks, H. B. Schlegel, G. E. Scuseria, 
 M. A. Robb, J. R. Cheeseman, G. Scalmani, V. Barone, 
 G. A. Petersson, H. Nakatsuji, X. Li, M. Caricato, A. V. Marenich, 
 J. Bloino, B. G. Janesko, R. Gomperts, B. Mennucci, H. P. Hratchian, 
 J. V. Ortiz, A. F. Izmaylov, J. L. Sonnenberg, D. Williams-Young, 
 F. Ding, F. Lipparini, F. Egidi, J. Goings, B. Peng, A. Petrone, 
 T. Henderson, D. Ranasinghe, V. G. Zakrzewski, J. Gao, N. Rega, 
 G. Zheng, W. Liang, M. Hada, M. Ehara, K. Toyota, R. Fukuda, 
 J. Hasegawa, M. Ishida, T. Nakajima, Y. Honda, O. Kitao, H. Nakai, 
 T. Vreven, K. Throssell, J. A. Montgomery, Jr., J. E. Peralta, 
 F. Ogliaro, M. J. Bearpark, J. J. Heyd, E. N. Brothers, K. N. Kudin, 
 V. N. Staroverov, T. A. Keith, R. Kobayashi, J. Normand, 
 K. Raghavachari, A. P. Rendell, J. C. Burant, S. S. Iyengar, 
 J. Tomasi, M. Cossi, J. M. Millam, M. Klene, C. Adamo, R. Cammi, 
 J. W. Ochterski, R. L. Martin, K. Morokuma, O. Farkas, 
 J. B. Foresman, and D. J. Fox, Gaussian, Inc., Wallingford CT, 2016.
 
 ******************************************
 Gaussian 16:  ES64L-G16RevA.03 25-Dec-2016
                 9-Dec-2020 
 ******************************************
 %chk=JID_2431.chk
 %mem=8GB
 %nprocshared=4
 Will use up to    4 processors via shared memory.
 -----------------------------------------------------------
 # opt freq B3LYP/6-31G(d) empiricaldispersion=gd3bj scf=xqc
 -----------------------------------------------------------
 1/18=20,19=15,26=3,38=1/1,3;
 2/9=110,12=2,17=6,18=5,40=1/2;
 3/5=1,6=6,7=1,11=2,25=1,30=1,71=1,74=-5,124=41/1,2,3;
 4//1;
 5/5=2,8=3,13=1,38=5/2,8;
 6/7=2,8=2,9=2,10=2,28=1/1;
 7//1,2,3,16;
 1/18=20,19=15,26=3/3(2);
 2/9=110/2;
 99//99;
 2/9=110/2;
 3/5=1,6=6,7=1,11=2,25=1,30=1,71=1,74=-5,124=41/1,2,3;
 4/5=5,16=3,69=1/1;
 5/5=2,8=3,13=1,38=5/2,8;
 7//1,2,3,16;
 1/18=20,19=15,26=3/3(-5);
 2/9=110/2;
 6/7=2,8=2,9=2,10=2,19=2,28=1/1;
 99/9=1/99;
 -------------------------------
 CID_141279121_JID_2431_neutraal
 -------------------------------
 Symbolic Z-matrix:
 Charge =  0 Multiplicity = 1
 C                     1.0315   -0.02606   0.09126 
 C                     0.6076   -0.52155   1.42073 
 C                     0.64708  -1.81183   1.92219 
 N                     0.12281  -1.70762   3.19371 
 C                    -0.18169  -0.38862   3.40544 
 N                     0.09903   0.34844   2.3558 
 O                    -0.70346   0.05017   4.5485 
 C                    -0.95157   1.45138   4.57367 
 C                    -0.03526  -2.76953   4.16946 
 N                    -1.26981  -3.48045   3.84775 
 C                     1.11292  -3.08046   1.32433 
 O                     2.37297  -3.36643   1.91316 
 H                     0.85905   1.05089   0.00058 
 H                     0.46937  -0.52824  -0.7021 
 H                     2.0982   -0.21447  -0.06465 
 H                    -0.02135   2.01718   4.45185 
 H                    -1.67915   1.73521   3.80535 
 H                    -1.37521   1.70198   5.55075 
 H                     0.83087  -3.43391   4.11185 
 H                    -0.07736  -2.33726   5.17353 
 H                    -1.43524  -4.18413   4.56424 
 H                    -2.04719  -2.82276   3.91118 
 H                     0.43083  -3.91124   1.52324 
 H                     1.24236  -2.99955   0.24085 
 H                     2.93808  -2.59302   1.74344 
 

 GradGradGradGradGradGradGradGradGradGradGradGradGradGradGradGradGradGrad
 Berny optimization.
 Initialization pass.
                           ----------------------------
                           !    Initial Parameters    !
                           ! (Angstroms and Degrees)  !
 --------------------------                            --------------------------
 ! Name  Definition              Value          Derivative Info.                !
 --------------------------------------------------------------------------------
 ! R1    R(1,2)                  1.4808         estimate D2E/DX2                !
 ! R2    R(1,13)                 1.0944         estimate D2E/DX2                !
 ! R3    R(1,14)                 1.0943         estimate D2E/DX2                !
 ! R4    R(1,15)                 1.0944         estimate D2E/DX2                !
 ! R5    R(2,3)                  1.3849         estimate D2E/DX2                !
 ! R6    R(2,6)                  1.3747         estimate D2E/DX2                !
 ! R7    R(3,4)                  1.3793         estimate D2E/DX2                !
 ! R8    R(3,11)                 1.4778         estimate D2E/DX2                !
 ! R9    R(4,5)                  1.3701         estimate D2E/DX2                !
 ! R10   R(4,9)                  1.4508         estimate D2E/DX2                !
 ! R11   R(5,6)                  1.3129         estimate D2E/DX2                !
 ! R12   R(5,7)                  1.3309         estimate D2E/DX2                !
 ! R13   R(7,8)                  1.4232         estimate D2E/DX2                !
 ! R14   R(8,16)                 1.0956         estimate D2E/DX2                !
 ! R15   R(8,17)                 1.0956         estimate D2E/DX2                !
 ! R16   R(8,18)                 1.0941         estimate D2E/DX2                !
 ! R17   R(9,10)                 1.4605         estimate D2E/DX2                !
 ! R18   R(9,19)                 1.0931         estimate D2E/DX2                !
 ! R19   R(9,20)                 1.094          estimate D2E/DX2                !
 ! R20   R(10,21)                1.0178         estimate D2E/DX2                !
 ! R21   R(10,22)                1.0202         estimate D2E/DX2                !
 ! R22   R(11,12)                1.4199         estimate D2E/DX2                !
 ! R23   R(11,23)                1.0932         estimate D2E/DX2                !
 ! R24   R(11,24)                1.0942         estimate D2E/DX2                !
 ! R25   R(12,25)                0.9728         estimate D2E/DX2                !
 ! A1    A(2,1,13)             111.0113         estimate D2E/DX2                !
 ! A2    A(2,1,14)             110.505          estimate D2E/DX2                !
 ! A3    A(2,1,15)             110.4463         estimate D2E/DX2                !
 ! A4    A(13,1,14)            108.0923         estimate D2E/DX2                !
 ! A5    A(13,1,15)            108.1312         estimate D2E/DX2                !
 ! A6    A(14,1,15)            108.5658         estimate D2E/DX2                !
 ! A7    A(1,2,3)              128.9545         estimate D2E/DX2                !
 ! A8    A(1,2,6)              120.3199         estimate D2E/DX2                !
 ! A9    A(3,2,6)              110.7244         estimate D2E/DX2                !
 ! A10   A(2,3,4)              104.63           estimate D2E/DX2                !
 ! A11   A(2,3,11)             131.4776         estimate D2E/DX2                !
 ! A12   A(4,3,11)             123.8917         estimate D2E/DX2                !
 ! A13   A(3,4,5)              107.4371         estimate D2E/DX2                !
 ! A14   A(3,4,9)              127.3101         estimate D2E/DX2                !
 ! A15   A(5,4,9)              125.2041         estimate D2E/DX2                !
 ! A16   A(4,5,6)              111.6766         estimate D2E/DX2                !
 ! A17   A(4,5,7)              122.4948         estimate D2E/DX2                !
 ! A18   A(6,5,7)              125.8279         estimate D2E/DX2                !
 ! A19   A(2,6,5)              105.5221         estimate D2E/DX2                !
 ! A20   A(5,7,8)              114.0867         estimate D2E/DX2                !
 ! A21   A(7,8,16)             111.0061         estimate D2E/DX2                !
 ! A22   A(7,8,17)             111.0043         estimate D2E/DX2                !
 ! A23   A(7,8,18)             107.9875         estimate D2E/DX2                !
 ! A24   A(16,8,17)            110.6163         estimate D2E/DX2                !
 ! A25   A(16,8,18)            108.0464         estimate D2E/DX2                !
 ! A26   A(17,8,18)            108.0484         estimate D2E/DX2                !
 ! A27   A(4,9,10)             107.4724         estimate D2E/DX2                !
 ! A28   A(4,9,19)             108.8505         estimate D2E/DX2                !
 ! A29   A(4,9,20)             109.4065         estimate D2E/DX2                !
 ! A30   A(10,9,19)            111.2423         estimate D2E/DX2                !
 ! A31   A(10,9,20)            111.222          estimate D2E/DX2                !
 ! A32   A(19,9,20)            108.6038         estimate D2E/DX2                !
 ! A33   A(9,10,21)            108.5947         estimate D2E/DX2                !
 ! A34   A(9,10,22)            108.4571         estimate D2E/DX2                !
 ! A35   A(21,10,22)           106.1456         estimate D2E/DX2                !
 ! A36   A(3,11,12)            106.5502         estimate D2E/DX2                !
 ! A37   A(3,11,23)            112.4645         estimate D2E/DX2                !
 ! A38   A(3,11,24)            111.9884         estimate D2E/DX2                !
 ! A39   A(12,11,23)           108.977          estimate D2E/DX2                !
 ! A40   A(12,11,24)           108.696          estimate D2E/DX2                !
 ! A41   A(23,11,24)           108.0706         estimate D2E/DX2                !
 ! A42   A(11,12,25)           106.4415         estimate D2E/DX2                !
 ! D1    D(13,1,2,3)           179.3357         estimate D2E/DX2                !
 ! D2    D(13,1,2,6)            -1.097          estimate D2E/DX2                !
 ! D3    D(14,1,2,3)            59.414          estimate D2E/DX2                !
 ! D4    D(14,1,2,6)          -121.0187         estimate D2E/DX2                !
 ! D5    D(15,1,2,3)           -60.7325         estimate D2E/DX2                !
 ! D6    D(15,1,2,6)           118.8347         estimate D2E/DX2                !
 ! D7    D(1,2,3,4)           -179.4317         estimate D2E/DX2                !
 ! D8    D(1,2,3,11)             0.2725         estimate D2E/DX2                !
 ! D9    D(6,2,3,4)              0.9677         estimate D2E/DX2                !
 ! D10   D(6,2,3,11)          -179.3281         estimate D2E/DX2                !
 ! D11   D(1,2,6,5)            179.759          estimate D2E/DX2                !
 ! D12   D(3,2,6,5)             -0.6008         estimate D2E/DX2                !
 ! D13   D(2,3,4,5)             -0.9452         estimate D2E/DX2                !
 ! D14   D(2,3,4,9)           -178.4964         estimate D2E/DX2                !
 ! D15   D(11,3,4,5)           179.3218         estimate D2E/DX2                !
 ! D16   D(11,3,4,9)             1.7706         estimate D2E/DX2                !
 ! D17   D(2,3,11,12)          104.0566         estimate D2E/DX2                !
 ! D18   D(2,3,11,23)         -136.6045         estimate D2E/DX2                !
 ! D19   D(2,3,11,24)          -14.6697         estimate D2E/DX2                !
 ! D20   D(4,3,11,12)          -76.2883         estimate D2E/DX2                !
 ! D21   D(4,3,11,23)           43.0506         estimate D2E/DX2                !
 ! D22   D(4,3,11,24)          164.9854         estimate D2E/DX2                !
 ! D23   D(3,4,5,6)              0.6346         estimate D2E/DX2                !
 ! D24   D(3,4,5,7)           -179.6664         estimate D2E/DX2                !
 ! D25   D(9,4,5,6)            178.251          estimate D2E/DX2                !
 ! D26   D(9,4,5,7)             -2.05           estimate D2E/DX2                !
 ! D27   D(3,4,9,10)           -82.3854         estimate D2E/DX2                !
 ! D28   D(3,4,9,19)            38.2007         estimate D2E/DX2                !
 ! D29   D(3,4,9,20)           156.7348         estimate D2E/DX2                !
 ! D30   D(5,4,9,10)           100.4741         estimate D2E/DX2                !
 ! D31   D(5,4,9,19)          -138.9398         estimate D2E/DX2                !
 ! D32   D(5,4,9,20)           -20.4057         estimate D2E/DX2                !
 ! D33   D(4,5,6,2)             -0.0265         estimate D2E/DX2                !
 ! D34   D(7,5,6,2)           -179.7135         estimate D2E/DX2                !
 ! D35   D(4,5,7,8)           -179.8809         estimate D2E/DX2                !
 ! D36   D(6,5,7,8)             -0.2258         estimate D2E/DX2                !
 ! D37   D(5,7,8,16)           -61.6732         estimate D2E/DX2                !
 ! D38   D(5,7,8,17)            61.7934         estimate D2E/DX2                !
 ! D39   D(5,7,8,18)          -179.9392         estimate D2E/DX2                !
 ! D40   D(4,9,10,21)         -175.6872         estimate D2E/DX2                !
 ! D41   D(4,9,10,22)          -60.752          estimate D2E/DX2                !
 ! D42   D(19,9,10,21)          65.2493         estimate D2E/DX2                !
 ! D43   D(19,9,10,22)        -179.8155         estimate D2E/DX2                !
 ! D44   D(20,9,10,21)         -55.9574         estimate D2E/DX2                !
 ! D45   D(20,9,10,22)          58.9779         estimate D2E/DX2                !
 ! D46   D(3,11,12,25)         -56.3503         estimate D2E/DX2                !
 ! D47   D(23,11,12,25)       -177.9328         estimate D2E/DX2                !
 ! D48   D(24,11,12,25)         64.5083         estimate D2E/DX2                !
 --------------------------------------------------------------------------------
 Trust Radius=3.00D-01 FncErr=1.00D-07 GrdErr=1.00D-06 EigMax=2.50D+02 EigMin=1.00D-04
 Number of steps in this run=    125 maximum allowed number of steps=    150.
 GradGradGradGradGradGradGradGradGradGradGradGradGradGradGradGradGradGrad

                          Input orientation:                          
 ---------------------------------------------------------------------
 Center     Atomic      Atomic             Coordinates (Angstroms)
 Number     Number       Type             X           Y           Z
 ---------------------------------------------------------------------
      1          6           0        1.031500   -0.026060    0.091260
      2          6           0        0.607600   -0.521550    1.420730
      3          6           0        0.647080   -1.811830    1.922190
      4          7           0        0.122810   -1.707620    3.193710
      5          6           0       -0.181690   -0.388620    3.405440
      6          7           0        0.099030    0.348440    2.355800
      7          8           0       -0.703460    0.050170    4.548500
      8          6           0       -0.951570    1.451380    4.573670
      9          6           0       -0.035260   -2.769530    4.169460
     10          7           0       -1.269810   -3.480450    3.847750
     11          6           0        1.112920   -3.080460    1.324330
     12          8           0        2.372970   -3.366430    1.913160
     13          1           0        0.859050    1.050890    0.000580
     14          1           0        0.469370   -0.528240   -0.702100
     15          1           0        2.098200   -0.214470   -0.064650
     16          1           0       -0.021350    2.017180    4.451850
     17          1           0       -1.679150    1.735210    3.805350
     18          1           0       -1.375210    1.701980    5.550750
     19          1           0        0.830870   -3.433910    4.111850
     20          1           0       -0.077360   -2.337260    5.173530
     21          1           0       -1.435240   -4.184130    4.564240
     22          1           0       -2.047190   -2.822760    3.911180
     23          1           0        0.430830   -3.911240    1.523240
     24          1           0        1.242360   -2.999550    0.240850
     25          1           0        2.938080   -2.593020    1.743440
 ---------------------------------------------------------------------
                    Distance matrix (angstroms):
                    1          2          3          4          5
     1  C    0.000000
     2  C    1.480774   0.000000
     3  C    2.586321   1.384862   0.000000
     4  N    3.643976   2.187519   1.379305   0.000000
     5  C    3.547826   2.140029   2.216397   1.370150   0.000000
     6  N    2.477477   1.374730   2.270494   2.220370   1.312938
     7  O    4.783606   3.439286   3.491204   2.368122   1.330927
     8  C    5.119316   4.032926   4.498285   3.610798   2.311510
     9  C    5.029545   3.608629   2.536336   1.450768   2.504776
    10  N    5.598219   4.262650   3.188501   2.347357   3.307424
    11  C    3.294913   2.610108   1.477791   2.521823   3.640472
    12  O    4.034468   3.384134   2.322834   3.074846   4.197683
    13  H    1.094433   2.133687   3.454371   4.283399   3.840365
    14  H    1.094347   2.127336   2.926787   4.085141   4.161161
    15  H    1.094374   2.126626   2.933401   4.092502   4.155689
    16  H    4.929307   4.003550   4.637596   3.934188   2.628413
    17  H    4.923836   4.001075   4.641027   3.933731   2.629252
    18  H    6.211635   5.092415   5.440861   4.407389   3.224508
    19  H    5.274357   3.971627   2.731215   2.079521   3.286044
    20  H    5.692160   4.224865   3.372255   2.087152   2.633292
    21  H    6.586494   5.241120   4.116345   3.230940   4.161743
    22  H    5.647269   4.306486   3.498164   2.543069   3.108199
    23  H    4.184017   3.395844   2.147894   2.782317   4.040632
    24  H    2.984708   2.817006   2.142882   3.412017   4.342753
    25  H    3.599171   3.134688   2.427116   3.288307   4.165884
                    6          7          8          9         10
     6  N    0.000000
     7  O    2.353909   0.000000
     8  C    2.690573   1.423229   0.000000
     9  C    3.609589   2.922477   4.338098   0.000000
    10  N    4.331286   3.643773   4.995116   1.460486   0.000000
    11  C    3.721459   4.847201   5.946251   3.083790   3.493572
    12  O    4.378012   5.299301   6.429788   3.353618   4.126195
    13  H    2.572572   4.911869   4.934763   5.724942   6.313937
    14  H    3.202573   5.410997   5.811344   5.386105   5.695738
    15  H    3.189377   5.403747   5.795702   5.385877   6.108763
    16  H    2.681904   2.084165   1.095572   4.795053   5.669879
    17  H    2.680718   2.084131   1.095558   4.809120   5.231870
    18  H    3.770034   2.045539   1.094055   4.868042   5.456088
    19  H    4.233848   3.831924   5.220769   1.093115   2.117728
    20  H    3.896627   2.546073   3.934192   1.093977   2.118139
    21  H    5.270236   4.297097   5.656235   2.029012   1.017787
    22  H    4.133035   3.235045   4.461788   2.029139   1.020245
    23  H    4.352944   5.111906   6.322487   2.919456   2.912233
    24  H    4.121802   5.625198   6.587673   4.137535   4.421763
    25  H    4.133688   5.302417   6.284644   3.841547   4.787692
                   11         12         13         14         15
    11  C    0.000000
    12  O    1.419939   0.000000
    13  H    4.345666   5.046051   0.000000
    14  H    3.321807   4.303324   1.771796   0.000000
    15  H    3.333758   3.731231   1.772254   1.777043   0.000000
    16  H    6.087190   6.415682   4.639248   5.769157   5.465485
    17  H    6.094407   6.784305   4.624611   5.482376   5.748611
    18  H    6.850193   7.278028   6.018324   6.890173   6.875324
    19  H    2.823959   2.686422   6.084141   5.634511   5.423474
    20  H    4.097005   4.206343   6.254265   6.172074   6.056222
    21  H    4.267110   4.711616   7.314109   6.687855   7.047696
    22  H    4.092004   4.881135   6.224483   5.734130   6.308301
    23  H    1.093164   2.054450   5.208128   4.049483   4.355184
    24  H    1.094180   2.051707   4.075625   2.755729   2.929584
    25  H    1.935061   0.972788   4.542907   4.042092   3.103561
                   16         17         18         19         20
    16  H    0.000000
    17  H    1.801602   0.000000
    18  H    1.771968   1.771978   0.000000
    19  H    5.527772   5.754472   5.771879   0.000000
    20  H    4.414194   4.585047   4.259363   1.776144   0.000000
    21  H    6.361443   5.972771   5.968509   2.429556   2.371919
    22  H    5.274597   4.574029   4.859323   2.949068   2.389449
    23  H    6.627774   6.445342   7.140788   2.662476   4.007529
    24  H    6.670612   6.607483   7.559834   3.916967   5.148944
    25  H    6.111273   6.656115   7.179631   3.279755   4.574255
                   21         22         23         24         25
    21  H    0.000000
    22  H    1.629202   0.000000
    23  H    3.578319   3.609381   0.000000
    24  H    5.221539   4.931908   1.770391   0.000000
    25  H    5.441918   5.441029   2.841214   2.301849   0.000000
 Stoichiometry    C7H13N3O2
 Framework group  C1[X(C7H13N3O2)]
 Deg. of freedom    69
 Full point group                 C1      NOp   1
 Largest Abelian subgroup         C1      NOp   1
 Largest concise Abelian subgroup C1      NOp   1
                         Standard orientation:                         
 ---------------------------------------------------------------------
 Center     Atomic      Atomic             Coordinates (Angstroms)
 Number     Number       Type             X           Y           Z
 ---------------------------------------------------------------------
      1          6           0        1.043086    2.829705   -0.499521
      2          6           0        0.414148    1.512112   -0.252379
      3          6           0        1.013034    0.268224   -0.143194
      4          7           0       -0.033135   -0.604389    0.072583
      5          6           0       -1.185464    0.136151    0.104967
      6          7           0       -0.947088    1.412780   -0.087907
      7          8           0       -2.382016   -0.411565    0.304053
      8          6           0       -3.456064    0.522241    0.300890
      9          6           0        0.046663   -2.037017    0.286914
     10          7           0        0.148626   -2.671599   -1.024546
     11          6           0        2.428658   -0.147350   -0.227887
     12          8           0        2.856775   -0.398459    1.102483
     13          1           0        0.289628    3.622325   -0.542414
     14          1           0        1.584537    2.823685   -1.450515
     15          1           0        1.748137    3.073018    0.301327
     16          1           0       -3.342359    1.254318    1.107991
     17          1           0       -3.535432    1.026173   -0.668647
     18          1           0       -4.384603   -0.030236    0.472762
     19          1           0        0.924489   -2.253884    0.901154
     20          1           0       -0.845766   -2.374774    0.821962
     21          1           0        0.133295   -3.681437   -0.898525
     22          1           0       -0.687485   -2.439953   -1.561348
     23          1           0        2.562646   -1.055275   -0.821795
     24          1           0        3.060496    0.635737   -0.657754
     25          1           0        2.691151    0.418549    1.603865
 ---------------------------------------------------------------------
 Rotational constants (GHZ):           1.1560495           0.8117090           0.5326592
 Standard basis: 6-31G(d) (6D, 7F)
 There are   206 symmetry adapted cartesian basis functions of A   symmetry.
 There are   206 symmetry adapted basis functions of A   symmetry.
   206 basis functions,   388 primitive gaussians,   206 cartesian basis functions
    46 alpha electrons       46 beta electrons
       nuclear repulsion energy       758.4666461218 Hartrees.
 NAtoms=   25 NActive=   25 NUniq=   25 SFac= 1.00D+00 NAtFMM=   60 NAOKFM=F Big=F
 Integral buffers will be    131072 words long.
 Raffenetti 2 integral format.
 Two-electron integral symmetry is turned on.
 Nuclear repulsion after empirical dispersion term =      758.4260854462 Hartrees.
 One-electron integrals computed using PRISM.
 NBasis=   206 RedAO= T EigKep=  8.18D-04  NBF=   206
 NBsUse=   206 1.00D-06 EigRej= -1.00D+00 NBFU=   206
 ExpMin= 1.61D-01 ExpMax= 5.48D+03 ExpMxC= 8.25D+02 IAcc=3 IRadAn=         5 AccDes= 0.00D+00
 Harris functional with IExCor=  402 and IRadAn=       5 diagonalized for initial guess.
 HarFok:  IExCor=  402 AccDes= 0.00D+00 IRadAn=         5 IDoV= 1 UseB2=F ITyADJ=14
 ICtDFT=  3500011 ScaDFX=  1.000000  1.000000  1.000000  1.000000
 FoFCou: FMM=F IPFlag=           0 FMFlag=      100000 FMFlg1=           0
         NFxFlg=           0 DoJE=T BraDBF=F KetDBF=T FulRan=T
         wScrn=  0.000000 ICntrl=       500 IOpCl=  0 I1Cent=   200000004 NGrid=           0
         NMat0=    1 NMatS0=      1 NMatT0=    0 NMatD0=    1 NMtDS0=    0 NMtDT0=    0
 Petite list used in FoFCou.
 Keep R1 ints in memory in canonical form, NReq=231739465.
 Requested convergence on RMS density matrix=1.00D-08 within  32 cycles.
 Requested convergence on MAX density matrix=1.00D-06.
 Requested convergence on             energy=1.00D-06.
 No special actions if energy rises.
 Integral accuracy reduced to 1.0D-05 until final iterations.
 Initial convergence to 1.0D-05 achieved.  Increase integral accuracy.
 SCF Done:  E(RB3LYP) =  -589.278319819     A.U. after   14 cycles
            NFock= 14  Conv=0.80D-08     -V/T= 2.0088
 QCSCF skips out because SCF is already converged.

 **********************************************************************

            Population analysis using the SCF density.

 **********************************************************************

 Orbital symmetries:
       Occupied  (A) (A) (A) (A) (A) (A) (A) (A) (A) (A) (A) (A)
                 (A) (A) (A) (A) (A) (A) (A) (A) (A) (A) (A) (A)
                 (A) (A) (A) (A) (A) (A) (A) (A) (A) (A) (A) (A)
                 (A) (A) (A) (A) (A) (A) (A) (A) (A) (A)
       Virtual   (A) (A) (A) (A) (A) (A) (A) (A) (A) (A) (A) (A)
                 (A) (A) (A) (A) (A) (A) (A) (A) (A) (A) (A) (A)
                 (A) (A) (A) (A) (A) (A) (A) (A) (A) (A) (A) (A)
                 (A) (A) (A) (A) (A) (A) (A) (A) (A) (A) (A) (A)
                 (A) (A) (A) (A) (A) (A) (A) (A) (A) (A) (A) (A)
                 (A) (A) (A) (A) (A) (A) (A) (A) (A) (A) (A) (A)
                 (A) (A) (A) (A) (A) (A) (A) (A) (A) (A) (A) (A)
                 (A) (A) (A) (A) (A) (A) (A) (A) (A) (A) (A) (A)
                 (A) (A) (A) (A) (A) (A) (A) (A) (A) (A) (A) (A)
                 (A) (A) (A) (A) (A) (A) (A) (A) (A) (A) (A) (A)
                 (A) (A) (A) (A) (A) (A) (A) (A) (A) (A) (A) (A)
                 (A) (A) (A) (A) (A) (A) (A) (A) (A) (A) (A) (A)
                 (A) (A) (A) (A) (A) (A) (A) (A) (A) (A) (A) (A)
                 (A) (A) (A) (A)
 The electronic state is 1-A.
 Alpha  occ. eigenvalues --  -19.19039 -19.13469 -14.37857 -14.32275 -14.29381
 Alpha  occ. eigenvalues --  -10.28255 -10.25206 -10.23803 -10.22871 -10.19338
 Alpha  occ. eigenvalues --  -10.19123 -10.17151  -1.09344  -1.01614  -0.99751
 Alpha  occ. eigenvalues --   -0.90986  -0.85349  -0.76870  -0.72239  -0.71183
 Alpha  occ. eigenvalues --   -0.68034  -0.63339  -0.57365  -0.56260  -0.53271
 Alpha  occ. eigenvalues --   -0.50976  -0.49026  -0.47925  -0.46637  -0.45975
 Alpha  occ. eigenvalues --   -0.44397  -0.43022  -0.42824  -0.41750  -0.40593
 Alpha  occ. eigenvalues --   -0.38791  -0.38195  -0.37313  -0.34843  -0.33151
 Alpha  occ. eigenvalues --   -0.31804  -0.27090  -0.26017  -0.25673  -0.24783
 Alpha  occ. eigenvalues --   -0.18703
 Alpha virt. eigenvalues --    0.02979   0.07831   0.08548   0.09234   0.11593
 Alpha virt. eigenvalues --    0.12311   0.13280   0.14125   0.15059   0.15616
 Alpha virt. eigenvalues --    0.15843   0.16563   0.17398   0.18004   0.18376
 Alpha virt. eigenvalues --    0.18894   0.20281   0.22557   0.23531   0.25569
 Alpha virt. eigenvalues --    0.27568   0.28429   0.31215   0.33219   0.37307
 Alpha virt. eigenvalues --    0.44136   0.46320   0.49263   0.50905   0.51575
 Alpha virt. eigenvalues --    0.52968   0.54758   0.55123   0.55856   0.56721
 Alpha virt. eigenvalues --    0.58742   0.59433   0.62096   0.65026   0.66423
 Alpha virt. eigenvalues --    0.66927   0.69293   0.70345   0.71946   0.72681
 Alpha virt. eigenvalues --    0.73704   0.77151   0.78571   0.79729   0.80006
 Alpha virt. eigenvalues --    0.81355   0.82386   0.83125   0.83634   0.86622
 Alpha virt. eigenvalues --    0.87531   0.88203   0.89609   0.89817   0.91501
 Alpha virt. eigenvalues --    0.92519   0.93367   0.95006   0.95567   0.96336
 Alpha virt. eigenvalues --    0.96877   0.99859   0.99984   1.02375   1.03929
 Alpha virt. eigenvalues --    1.05997   1.08856   1.09473   1.09731   1.15174
 Alpha virt. eigenvalues --    1.18835   1.24233   1.26264   1.27356   1.30675
 Alpha virt. eigenvalues --    1.31422   1.33124   1.37410   1.39404   1.41034
 Alpha virt. eigenvalues --    1.44057   1.48728   1.49293   1.51295   1.57118
 Alpha virt. eigenvalues --    1.58012   1.61074   1.66388   1.66934   1.69589
 Alpha virt. eigenvalues --    1.73270   1.75417   1.78800   1.81301   1.82908
 Alpha virt. eigenvalues --    1.88055   1.90998   1.92961   1.93700   1.94143
 Alpha virt. eigenvalues --    1.97022   2.00152   2.00786   2.03869   2.05606
 Alpha virt. eigenvalues --    2.07862   2.08650   2.09773   2.12645   2.14251
 Alpha virt. eigenvalues --    2.16230   2.19366   2.20890   2.22688   2.25687
 Alpha virt. eigenvalues --    2.27647   2.28737   2.30290   2.34888   2.35537
 Alpha virt. eigenvalues --    2.38113   2.39992   2.42691   2.45088   2.47623
 Alpha virt. eigenvalues --    2.49549   2.50629   2.53079   2.53940   2.61282
 Alpha virt. eigenvalues --    2.63461   2.67001   2.67243   2.73152   2.74473
 Alpha virt. eigenvalues --    2.80212   2.85709   2.88207   2.92065   3.00263
 Alpha virt. eigenvalues --    3.15027   3.22910   3.31390   3.76020   3.78744
 Alpha virt. eigenvalues --    4.08442   4.12145   4.19052   4.24275   4.27832
 Alpha virt. eigenvalues --    4.37187   4.41884   4.46720   4.61495   4.71177
          Condensed to atoms (all electrons):
               1          2          3          4          5          6
     1  C    5.236347   0.364329  -0.089250   0.006873   0.006351  -0.073746
     2  C    0.364329   4.753436   0.527956  -0.025973  -0.090416   0.422406
     3  C   -0.089250   0.527956   4.924342   0.291953  -0.082739  -0.052512
     4  N    0.006873  -0.025973   0.291953   6.937460   0.396918  -0.106647
     5  C    0.006351  -0.090416  -0.082739   0.396918   4.366129   0.465214
     6  N   -0.073746   0.422406  -0.052512  -0.106647   0.465214   6.934085
     7  O   -0.000110   0.001845   0.002205  -0.064077   0.286157  -0.061653
     8  C   -0.000040   0.000356   0.000238   0.003779  -0.037400  -0.006309
     9  C   -0.000122   0.007458  -0.035814   0.279632  -0.036981   0.005919
    10  N   -0.000001  -0.000651   0.005890  -0.085049   0.000149  -0.000092
    11  C   -0.004942  -0.059403   0.360050  -0.066076   0.004738   0.006611
    12  O   -0.000140  -0.004544  -0.072213  -0.000375   0.000218  -0.000003
    13  H    0.357329  -0.020288   0.004660  -0.000061   0.000087   0.003553
    14  H    0.363812  -0.031006   0.000054   0.000016  -0.000015   0.001429
    15  H    0.360516  -0.029123  -0.002659   0.000001  -0.000089   0.001720
    16  H    0.000003  -0.000228  -0.000005  -0.000024  -0.003037   0.007565
    17  H    0.000004  -0.000127  -0.000029   0.000022  -0.003147   0.007611
    18  H   -0.000001  -0.000005   0.000006  -0.000026   0.003308   0.000853
    19  H   -0.000001  -0.000305  -0.007671  -0.023311   0.003227  -0.000233
    20  H    0.000005  -0.000266   0.005288  -0.040552  -0.005671   0.000244
    21  H   -0.000000   0.000014  -0.000114   0.006571  -0.000023   0.000004
    22  H    0.000001  -0.000024  -0.000708  -0.000074   0.002698  -0.000184
    23  H   -0.000038   0.003402  -0.022049  -0.008205  -0.000120  -0.000158
    24  H    0.003888  -0.009632  -0.035314   0.003983   0.000011  -0.000005
    25  H   -0.000090   0.004478   0.005816  -0.001073  -0.000198  -0.000161
               7          8          9         10         11         12
     1  C   -0.000110  -0.000040  -0.000122  -0.000001  -0.004942  -0.000140
     2  C    0.001845   0.000356   0.007458  -0.000651  -0.059403  -0.004544
     3  C    0.002205   0.000238  -0.035814   0.005890   0.360050  -0.072213
     4  N   -0.064077   0.003779   0.279632  -0.085049  -0.066076  -0.000375
     5  C    0.286157  -0.037400  -0.036981   0.000149   0.004738   0.000218
     6  N   -0.061653  -0.006309   0.005919  -0.000092   0.006611  -0.000003
     7  O    8.182476   0.249047   0.001993  -0.000355  -0.000037  -0.000000
     8  C    0.249047   4.880251  -0.000211   0.000008   0.000001  -0.000000
     9  C    0.001993  -0.000211   4.857434   0.299609   0.000999  -0.003597
    10  N   -0.000355   0.000008   0.299609   6.975768  -0.003447   0.000088
    11  C   -0.000037   0.000001   0.000999  -0.003447   4.966012   0.226452
    12  O   -0.000000  -0.000000  -0.003597   0.000088   0.226452   8.302847
    13  H   -0.000007   0.000006   0.000002  -0.000000  -0.000039   0.000000
    14  H    0.000001   0.000000  -0.000004  -0.000001  -0.000341  -0.000068
    15  H    0.000001   0.000000   0.000003   0.000000   0.001262   0.000362
    16  H   -0.034418   0.372449   0.000025  -0.000000   0.000000   0.000000
    17  H   -0.034544   0.372267  -0.000015  -0.000000  -0.000001  -0.000000
    18  H   -0.031896   0.372625  -0.000010   0.000001  -0.000000   0.000000
    19  H    0.000163   0.000003   0.363500  -0.044871   0.000334   0.012757
    20  H    0.006912  -0.000173   0.377219  -0.051657  -0.000147   0.000072
    21  H   -0.000018  -0.000001  -0.030810   0.297966   0.000016  -0.000000
    22  H    0.001031  -0.000023  -0.031885   0.301263   0.000027  -0.000005
    23  H   -0.000002   0.000000   0.001708   0.009442   0.358723  -0.038877
    24  H    0.000001  -0.000000  -0.000221   0.000069   0.361680  -0.036529
    25  H    0.000001   0.000000   0.000179  -0.000011  -0.027003   0.226445
              13         14         15         16         17         18
     1  C    0.357329   0.363812   0.360516   0.000003   0.000004  -0.000001
     2  C   -0.020288  -0.031006  -0.029123  -0.000228  -0.000127  -0.000005
     3  C    0.004660   0.000054  -0.002659  -0.000005  -0.000029   0.000006
     4  N   -0.000061   0.000016   0.000001  -0.000024   0.000022  -0.000026
     5  C    0.000087  -0.000015  -0.000089  -0.003037  -0.003147   0.003308
     6  N    0.003553   0.001429   0.001720   0.007565   0.007611   0.000853
     7  O   -0.000007   0.000001   0.000001  -0.034418  -0.034544  -0.031896
     8  C    0.000006   0.000000   0.000000   0.372449   0.372267   0.372625
     9  C    0.000002  -0.000004   0.000003   0.000025  -0.000015  -0.000010
    10  N   -0.000000  -0.000001   0.000000  -0.000000  -0.000000   0.000001
    11  C   -0.000039  -0.000341   0.001262   0.000000  -0.000001  -0.000000
    12  O    0.000000  -0.000068   0.000362   0.000000  -0.000000   0.000000
    13  H    0.533274  -0.024674  -0.026070   0.000004   0.000008   0.000000
    14  H   -0.024674   0.566474  -0.034137  -0.000000   0.000001   0.000000
    15  H   -0.026070  -0.034137   0.583769   0.000001  -0.000000   0.000000
    16  H    0.000004  -0.000000   0.000001   0.560687  -0.037767  -0.034675
    17  H    0.000008   0.000001  -0.000000  -0.037767   0.561973  -0.035143
    18  H    0.000000   0.000000   0.000000  -0.034675  -0.035143   0.568167
    19  H    0.000000   0.000001  -0.000003   0.000000   0.000001  -0.000000
    20  H   -0.000000   0.000000  -0.000000  -0.000014   0.000029  -0.000013
    21  H    0.000000   0.000000  -0.000000  -0.000000   0.000000  -0.000000
    22  H    0.000000   0.000000  -0.000000   0.000002   0.000001  -0.000002
    23  H    0.000001   0.000059  -0.000020  -0.000000   0.000000   0.000000
    24  H   -0.000043   0.001746  -0.000256  -0.000000   0.000000   0.000000
    25  H   -0.000006   0.000052   0.000100  -0.000000   0.000000   0.000000
              19         20         21         22         23         24
     1  C   -0.000001   0.000005  -0.000000   0.000001  -0.000038   0.003888
     2  C   -0.000305  -0.000266   0.000014  -0.000024   0.003402  -0.009632
     3  C   -0.007671   0.005288  -0.000114  -0.000708  -0.022049  -0.035314
     4  N   -0.023311  -0.040552   0.006571  -0.000074  -0.008205   0.003983
     5  C    0.003227  -0.005671  -0.000023   0.002698  -0.000120   0.000011
     6  N   -0.000233   0.000244   0.000004  -0.000184  -0.000158  -0.000005
     7  O    0.000163   0.006912  -0.000018   0.001031  -0.000002   0.000001
     8  C    0.000003  -0.000173  -0.000001  -0.000023   0.000000  -0.000000
     9  C    0.363500   0.377219  -0.030810  -0.031885   0.001708  -0.000221
    10  N   -0.044871  -0.051657   0.297966   0.301263   0.009442   0.000069
    11  C    0.000334  -0.000147   0.000016   0.000027   0.358723   0.361680
    12  O    0.012757   0.000072  -0.000000  -0.000005  -0.038877  -0.036529
    13  H    0.000000  -0.000000   0.000000   0.000000   0.000001  -0.000043
    14  H    0.000001   0.000000   0.000000   0.000000   0.000059   0.001746
    15  H   -0.000003  -0.000000  -0.000000  -0.000000  -0.000020  -0.000256
    16  H    0.000000  -0.000014  -0.000000   0.000002  -0.000000  -0.000000
    17  H    0.000001   0.000029   0.000000   0.000001   0.000000   0.000000
    18  H   -0.000000  -0.000013  -0.000000  -0.000002   0.000000   0.000000
    19  H    0.546687  -0.040845  -0.000236   0.005942  -0.002860   0.000335
    20  H   -0.040845   0.597536  -0.001581  -0.005006   0.000226   0.000003
    21  H   -0.000236  -0.001581   0.458607  -0.028540  -0.000067  -0.000001
    22  H    0.005942  -0.005006  -0.028540   0.449580  -0.000138  -0.000004
    23  H   -0.002860   0.000226  -0.000067  -0.000138   0.553191  -0.040396
    24  H    0.000335   0.000003  -0.000001  -0.000004  -0.040396   0.619247
    25  H   -0.000377  -0.000005   0.000000   0.000001   0.007429  -0.005678
              25
     1  C   -0.000090
     2  C    0.004478
     3  C    0.005816
     4  N   -0.001073
     5  C   -0.000198
     6  N   -0.000161
     7  O    0.000001
     8  C    0.000000
     9  C    0.000179
    10  N   -0.000011
    11  C   -0.027003
    12  O    0.226445
    13  H   -0.000006
    14  H    0.000052
    15  H    0.000100
    16  H   -0.000000
    17  H    0.000000
    18  H    0.000000
    19  H   -0.000377
    20  H   -0.000005
    21  H    0.000000
    22  H    0.000001
    23  H    0.007429
    24  H   -0.005678
    25  H    0.406287
 Mulliken charges:
               1
     1  C   -0.530976
     2  C    0.186313
     3  C    0.272621
     4  N   -0.505683
     5  C    0.724630
     6  N   -0.555512
     7  O   -0.504716
     8  C   -0.206876
     9  C   -0.056011
    10  N   -0.704116
    11  C   -0.125471
    12  O   -0.612890
    13  H    0.172264
    14  H    0.156600
    15  H    0.144623
    16  H    0.169431
    17  H    0.168857
    18  H    0.156811
    19  H    0.187762
    20  H    0.158396
    21  H    0.298214
    22  H    0.306049
    23  H    0.178748
    24  H    0.137117
    25  H    0.383814
 Sum of Mulliken charges =   0.00000
 Mulliken charges with hydrogens summed into heavy atoms:
               1
     1  C   -0.057489
     2  C    0.186313
     3  C    0.272621
     4  N   -0.505683
     5  C    0.724630
     6  N   -0.555512
     7  O   -0.504716
     8  C    0.288223
     9  C    0.290147
    10  N   -0.099853
    11  C    0.190394
    12  O   -0.229076
 Electronic spatial extent (au):  <R**2>=           2214.0909
 Charge=             -0.0000 electrons
 Dipole moment (field-independent basis, Debye):
    X=             -1.7008    Y=             -1.1397    Z=              0.2001  Tot=              2.0571
 Quadrupole moment (field-independent basis, Debye-Ang):
   XX=            -68.1242   YY=            -65.3261   ZZ=            -71.1623
   XY=              6.8606   XZ=             -0.5236   YZ=              1.6686
 Traceless Quadrupole moment (field-independent basis, Debye-Ang):
   XX=              0.0800   YY=              2.8781   ZZ=             -2.9581
   XY=              6.8606   XZ=             -0.5236   YZ=              1.6686
 Octapole moment (field-independent basis, Debye-Ang**2):
  XXX=            -47.9704  YYY=            -43.6727  ZZZ=              8.2949  XYY=             -0.1524
  XXY=             16.2239  XXZ=             -4.0509  XZZ=             -2.7113  YZZ=              1.0963
  YYZ=              0.4040  XYZ=             -0.0507
 Hexadecapole moment (field-independent basis, Debye-Ang**3):
 XXXX=          -1426.9412 YYYY=           -979.9135 ZZZZ=           -204.6946 XXXY=             13.0728
 XXXZ=            -29.6971 YYYX=             20.0879 YYYZ=             14.5566 ZZZX=             24.4139
 ZZZY=              8.7484 XXYY=           -442.5366 XXZZ=           -279.2022 YYZZ=           -218.6002
 XXYZ=             25.1571 YYXZ=             15.9656 ZZXY=             18.4785
 N-N= 7.584260854462D+02 E-N=-2.890858125261D+03  KE= 5.841192466706D+02
 Calling FoFJK, ICntrl=      2127 FMM=F ISym2X=0 I1Cent= 0 IOpClX= 0 NMat=1 NMatS=1 NMatT=0.
 ***** Axes restored to original set *****
 -------------------------------------------------------------------
 Center     Atomic                   Forces (Hartrees/Bohr)
 Number     Number              X              Y              Z
 -------------------------------------------------------------------
      1        6           0.002396482   -0.000141613   -0.007562352
      2        6           0.000699496   -0.009256310    0.005330186
      3        6          -0.015040037    0.018602219   -0.024422155
      4        7          -0.001479894    0.002858921    0.033272437
      5        6           0.008261873   -0.000969783   -0.021486753
      6        7          -0.002951664    0.006526873    0.004499493
      7        8          -0.004781129   -0.006297734    0.014353357
      8        6          -0.003451822    0.010730744    0.004809175
      9        6          -0.008889577    0.001858785   -0.002643680
     10        7          -0.000599629   -0.008806857   -0.001688209
     11        6           0.004796346    0.009473552    0.002798680
     12        8           0.016840526   -0.018906808    0.005765424
     13        1          -0.000318607   -0.001478985    0.002069734
     14        1           0.001717972    0.000258044   -0.004022673
     15        1           0.001578240    0.000692643   -0.004591362
     16        1          -0.001298359   -0.001276621   -0.004372428
     17        1           0.004143705   -0.000379445   -0.002296788
     18        1           0.000762316   -0.006711452    0.001041759
     19        1          -0.001798481   -0.001663678   -0.002178940
     20        1           0.006127242    0.007314979    0.000024239
     21        1          -0.001148308   -0.003043831    0.000064214
     22        1           0.001084636    0.000165354    0.000182122
     23        1           0.002825770   -0.001415141    0.003285028
     24        1          -0.006384711    0.003831146   -0.003681996
     25        1          -0.003092386   -0.001964999    0.001451489
 -------------------------------------------------------------------
 Cartesian Forces:  Max     0.033272437 RMS     0.008008691

 GradGradGradGradGradGradGradGradGradGradGradGradGradGradGradGradGradGrad
 Berny optimization.
 FormGI is forming the generalized inverse of G from B-inverse, IUseBI=4.
 Internal  Forces:  Max     0.028299872 RMS     0.005855189
 Search for a local minimum.
 Step number   1 out of a maximum of  125
 All quantities printed in internal units (Hartrees-Bohrs-Radians)
 Mixed Optimization -- RFO/linear search
 Second derivative matrix not updated -- first step.
 ITU=  0
     Eigenvalues ---    0.00892   0.01020   0.01020   0.01060   0.01385
     Eigenvalues ---    0.01428   0.01532   0.01612   0.01667   0.02115
     Eigenvalues ---    0.02301   0.02416   0.02605   0.04755   0.05759
     Eigenvalues ---    0.06800   0.06861   0.07339   0.07430   0.07470
     Eigenvalues ---    0.09308   0.10035   0.10502   0.11364   0.12812
     Eigenvalues ---    0.13755   0.16000   0.16000   0.16000   0.16000
     Eigenvalues ---    0.16000   0.16000   0.16000   0.16000   0.16000
     Eigenvalues ---    0.21940   0.21976   0.24961   0.24994   0.24999
     Eigenvalues ---    0.24999   0.25000   0.25000   0.25000   0.34177
     Eigenvalues ---    0.34178   0.34305   0.34312   0.34315   0.34334
     Eigenvalues ---    0.34348   0.34357   0.34450   0.34455   0.34481
     Eigenvalues ---    0.34824   0.36904   0.38145   0.41978   0.42470
     Eigenvalues ---    0.43650   0.44299   0.44693   0.45526   0.49335
     Eigenvalues ---    0.50361   0.52811   0.59287   0.61070
 RFO step:  Lambda=-1.68098025D-02 EMin= 8.91671472D-03
 Linear search not attempted -- first point.
 Iteration  1 RMS(Cart)=  0.08620654 RMS(Int)=  0.00337363
 Iteration  2 RMS(Cart)=  0.00498332 RMS(Int)=  0.00082560
 Iteration  3 RMS(Cart)=  0.00001889 RMS(Int)=  0.00082554
 Iteration  4 RMS(Cart)=  0.00000006 RMS(Int)=  0.00082554
 Variable       Old X    -DE/DX   Delta X   Delta X   Delta X     New X
                                 (Linear)    (Quad)   (Total)
    R1        2.79826   0.01398   0.00000   0.03866   0.03866   2.83692
    R2        2.06818  -0.00158   0.00000  -0.00438  -0.00438   2.06380
    R3        2.06802   0.00192   0.00000   0.00532   0.00532   2.07334
    R4        2.06807   0.00207   0.00000   0.00576   0.00576   2.07383
    R5        2.61701  -0.00477   0.00000  -0.00917  -0.00918   2.60783
    R6        2.59786   0.01103   0.00000   0.02183   0.02181   2.61967
    R7        2.60651   0.01354   0.00000   0.02630   0.02631   2.63282
    R8        2.79262   0.00854   0.00000   0.02340   0.02340   2.81602
    R9        2.58921  -0.00634   0.00000  -0.01257  -0.01255   2.57666
   R10        2.74155  -0.00057   0.00000  -0.00143  -0.00143   2.74012
   R11        2.48109   0.00489   0.00000   0.00743   0.00743   2.48853
   R12        2.51509   0.01214   0.00000   0.01991   0.01991   2.53500
   R13        2.68951   0.00229   0.00000   0.00523   0.00523   2.69475
   R14        2.07033  -0.00128   0.00000  -0.00356  -0.00356   2.06678
   R15        2.07030  -0.00124   0.00000  -0.00346  -0.00346   2.06685
   R16        2.06746  -0.00090   0.00000  -0.00250  -0.00250   2.06496
   R17        2.75992   0.00657   0.00000   0.01702   0.01702   2.77693
   R18        2.06569  -0.00030   0.00000  -0.00083  -0.00083   2.06486
   R19        2.06732   0.00268   0.00000   0.00743   0.00743   2.07475
   R20        1.92334   0.00234   0.00000   0.00504   0.00504   1.92838
   R21        1.92798  -0.00071   0.00000  -0.00154  -0.00154   1.92644
   R22        2.68330   0.01940   0.00000   0.04393   0.04393   2.72723
   R23        2.06578  -0.00009   0.00000  -0.00025  -0.00025   2.06553
   R24        2.06770   0.00317   0.00000   0.00881   0.00881   2.07651
   R25        1.83830  -0.00361   0.00000  -0.00663  -0.00663   1.83167
    A1        1.93751  -0.00497   0.00000  -0.03017  -0.02992   1.90759
    A2        1.92868   0.00502   0.00000   0.02946   0.02922   1.95789
    A3        1.92765   0.00599   0.00000   0.03485   0.03463   1.96228
    A4        1.88657  -0.00051   0.00000  -0.00483  -0.00462   1.88195
    A5        1.88725  -0.00104   0.00000  -0.00791  -0.00765   1.87959
    A6        1.89483  -0.00477   0.00000  -0.02301  -0.02364   1.87119
    A7        2.25068  -0.00052   0.00000  -0.00265  -0.00265   2.24804
    A8        2.09998   0.00430   0.00000   0.01542   0.01543   2.11540
    A9        1.93251  -0.00378   0.00000  -0.01271  -0.01276   1.91974
   A10        1.82614   0.00504   0.00000   0.01900   0.01891   1.84505
   A11        2.29472   0.00331   0.00000   0.01242   0.01233   2.30705
   A12        2.16232  -0.00835   0.00000  -0.03131  -0.03138   2.13094
   A13        1.87513  -0.00502   0.00000  -0.02027  -0.02025   1.85488
   A14        2.22198  -0.00187   0.00000  -0.00625  -0.00627   2.21571
   A15        2.18522   0.00690   0.00000   0.02670   0.02669   2.21192
   A16        1.94912   0.00511   0.00000   0.01817   0.01818   1.96730
   A17        2.13794  -0.01527   0.00000  -0.05672  -0.05674   2.08120
   A18        2.19611   0.01016   0.00000   0.03859   0.03857   2.23468
   A19        1.84171  -0.00134   0.00000  -0.00388  -0.00391   1.83780
   A20        1.99119   0.00399   0.00000   0.01494   0.01494   2.00613
   A21        1.93742  -0.00020   0.00000  -0.00302  -0.00310   1.93432
   A22        1.93739  -0.00027   0.00000  -0.00339  -0.00347   1.93392
   A23        1.88474  -0.00820   0.00000  -0.04277  -0.04282   1.84192
   A24        1.93062  -0.00268   0.00000  -0.02155  -0.02165   1.90897
   A25        1.88577   0.00576   0.00000   0.03613   0.03608   1.92185
   A26        1.88580   0.00581   0.00000   0.03644   0.03639   1.92219
   A27        1.87575   0.01208   0.00000   0.05287   0.05245   1.92820
   A28        1.89980  -0.00270   0.00000  -0.02366  -0.02350   1.87630
   A29        1.90950  -0.00958   0.00000  -0.04908  -0.05140   1.85810
   A30        1.94155  -0.00773   0.00000  -0.04890  -0.04798   1.89357
   A31        1.94119   0.00583   0.00000   0.06625   0.06673   2.00792
   A32        1.89549   0.00180   0.00000   0.00027  -0.00012   1.89537
   A33        1.89533   0.00342   0.00000   0.02163   0.02162   1.91696
   A34        1.89293  -0.00167   0.00000  -0.00714  -0.00715   1.88579
   A35        1.85259  -0.00004   0.00000   0.00494   0.00493   1.85752
   A36        1.85965   0.02830   0.00000   0.12688   0.12633   1.98598
   A37        1.96288  -0.00484   0.00000  -0.03020  -0.02943   1.93344
   A38        1.95457  -0.01202   0.00000  -0.05287  -0.05701   1.89756
   A39        1.90201  -0.01503   0.00000  -0.08296  -0.08131   1.82070
   A40        1.89710   0.00037   0.00000   0.04975   0.04913   1.94623
   A41        1.88619   0.00313   0.00000  -0.00854  -0.00984   1.87635
   A42        1.85776  -0.00139   0.00000  -0.00785  -0.00785   1.84990
    D1        3.13000  -0.00021   0.00000  -0.00672  -0.00669   3.12331
    D2       -0.01915   0.00015   0.00000   0.00404   0.00404  -0.01511
    D3        1.03697   0.00037   0.00000  -0.00038  -0.00004   1.03694
    D4       -2.11217   0.00073   0.00000   0.01038   0.01070  -2.10148
    D5       -1.05998  -0.00082   0.00000  -0.01336  -0.01369  -1.07367
    D6        2.07406  -0.00045   0.00000  -0.00260  -0.00296   2.07110
    D7       -3.13167  -0.00014   0.00000  -0.00445  -0.00465  -3.13632
    D8        0.00476   0.00060   0.00000   0.01924   0.01952   0.02428
    D9        0.01689  -0.00051   0.00000  -0.01448  -0.01452   0.00237
   D10       -3.12987   0.00023   0.00000   0.00921   0.00966  -3.12021
   D11        3.13739  -0.00004   0.00000  -0.00093  -0.00088   3.13651
   D12       -0.01049   0.00027   0.00000   0.00804   0.00804  -0.00245
   D13       -0.01650   0.00051   0.00000   0.01511   0.01513  -0.00137
   D14       -3.11535   0.00018   0.00000   0.00985   0.00990  -3.10545
   D15        3.12976  -0.00019   0.00000  -0.00642  -0.00616   3.12360
   D16        0.03090  -0.00053   0.00000  -0.01168  -0.01139   0.01951
   D17        1.81613   0.00531   0.00000   0.07034   0.07006   1.88619
   D18       -2.38420   0.00228   0.00000   0.03281   0.03186  -2.35234
   D19       -0.25604  -0.00606   0.00000  -0.03958  -0.03813  -0.29416
   D20       -1.33148   0.00621   0.00000   0.09811   0.09768  -1.23380
   D21        0.75138   0.00318   0.00000   0.06058   0.05948   0.81086
   D22        2.87954  -0.00515   0.00000  -0.01181  -0.01050   2.86903
   D23        0.01108  -0.00045   0.00000  -0.01135  -0.01122  -0.00014
   D24       -3.13577  -0.00012   0.00000  -0.00463  -0.00472  -3.14049
   D25        3.11107  -0.00039   0.00000  -0.00721  -0.00701   3.10405
   D26       -0.03578  -0.00006   0.00000  -0.00049  -0.00052  -0.03630
   D27       -1.43790   0.00457   0.00000   0.05776   0.05729  -1.38060
   D28        0.66673   0.00081   0.00000   0.01648   0.01594   0.68267
   D29        2.73554  -0.00416   0.00000  -0.02554  -0.02439   2.71115
   D30        1.75360   0.00451   0.00000   0.05287   0.05231   1.80592
   D31       -2.42496   0.00074   0.00000   0.01160   0.01096  -2.41400
   D32       -0.35615  -0.00423   0.00000  -0.03043  -0.02937  -0.38552
   D33       -0.00046   0.00007   0.00000   0.00200   0.00204   0.00158
   D34       -3.13659  -0.00018   0.00000  -0.00463  -0.00480  -3.14139
   D35       -3.13951  -0.00042   0.00000  -0.00951  -0.00946   3.13421
   D36       -0.00394  -0.00007   0.00000  -0.00194  -0.00199  -0.00593
   D37       -1.07640   0.00189   0.00000   0.01626   0.01621  -1.06019
   D38        1.07850  -0.00189   0.00000  -0.01607  -0.01603   1.06247
   D39       -3.14053   0.00001   0.00000   0.00018   0.00018  -3.14035
   D40       -3.06632  -0.00070   0.00000  -0.03531  -0.03653  -3.10285
   D41       -1.06032   0.00016   0.00000  -0.02189  -0.02311  -1.08343
   D42        1.13881  -0.00044   0.00000  -0.01108  -0.01116   1.12765
   D43       -3.13837   0.00042   0.00000   0.00233   0.00226  -3.13611
   D44       -0.97664  -0.00143   0.00000  -0.02340  -0.02211  -0.99875
   D45        1.02936  -0.00057   0.00000  -0.00999  -0.00869   1.02067
   D46       -0.98350   0.00091   0.00000   0.01110   0.00692  -0.97658
   D47       -3.10551  -0.00147   0.00000   0.01933   0.01990  -3.08561
   D48        1.12588   0.00300   0.00000   0.04803   0.05163   1.17751
         Item               Value     Threshold  Converged?
 Maximum Force            0.028300     0.000450     NO 
 RMS     Force            0.005855     0.000300     NO 
 Maximum Displacement     0.465647     0.001800     NO 
 RMS     Displacement     0.087160     0.001200     NO 
 Predicted change in Energy=-9.246011D-03
 GradGradGradGradGradGradGradGradGradGradGradGradGradGradGradGradGradGrad

                          Input orientation:                          
 ---------------------------------------------------------------------
 Center     Atomic      Atomic             Coordinates (Angstroms)
 Number     Number       Type             X           Y           Z
 ---------------------------------------------------------------------
      1          6           0        1.059678   -0.013984    0.028327
      2          6           0        0.615708   -0.484132    1.383150
      3          6           0        0.635335   -1.761734    1.904454
      4          7           0        0.109913   -1.652748    3.190200
      5          6           0       -0.190778   -0.334980    3.369735
      6          7           0        0.096232    0.400349    2.315663
      7          8           0       -0.718605    0.063671    4.536784
      8          6           0       -0.988397    1.460893    4.628728
      9          6           0       -0.040384   -2.716995    4.163500
     10          7           0       -1.225717   -3.529869    3.857519
     11          6           0        1.105773   -3.062034    1.348995
     12          8           0        2.323352   -3.546822    1.953367
     13          1           0        0.885182    1.060813   -0.055791
     14          1           0        0.509632   -0.508042   -0.782304
     15          1           0        2.127944   -0.193224   -0.147788
     16          1           0       -0.069573    2.042797    4.513356
     17          1           0       -1.710517    1.768077    3.866873
     18          1           0       -1.406788    1.613111    5.626645
     19          1           0        0.844465   -3.354189    4.093018
     20          1           0       -0.048330   -2.236825    5.150807
     21          1           0       -1.342987   -4.252403    4.568517
     22          1           0       -2.046137   -2.928008    3.920041
     23          1           0        0.375544   -3.852456    1.540617
     24          1           0        1.208203   -2.963716    0.259362
     25          1           0        2.976630   -2.839430    1.842335
 ---------------------------------------------------------------------
                    Distance matrix (angstroms):
                    1          2          3          4          5
     1  C    0.000000
     2  C    1.501231   0.000000
     3  C    2.598952   1.380004   0.000000
     4  N    3.685789   2.210638   1.393230   0.000000
     5  C    3.582135   2.149229   2.205706   1.363510   0.000000
     6  N    2.516308   1.386268   2.265906   2.231638   1.316872
     7  O    4.847113   3.467836   3.477703   2.333629   1.341465
     8  C    5.247244   4.109750   4.521450   3.601446   2.333757
     9  C    5.061231   3.625808   2.544093   1.450008   2.515288
    10  N    5.678661   4.334728   3.225567   2.398501   3.393574
    11  C    3.322182   2.624292   1.490176   2.523461   3.633353
    12  O    4.217060   3.552643   2.457302   3.164898   4.317740
    13  H    1.092114   2.128385   3.445541   4.301268   3.852292
    14  H    1.097163   2.168183   2.967527   4.153422   4.214256
    15  H    1.097422   2.171464   2.983254   4.164711   4.215393
    16  H    5.061723   4.080829   4.666661   3.929378   2.641285
    17  H    5.058079   4.080765   4.670512   3.933687   2.641893
    18  H    6.330249   5.147442   5.423519   4.347698   3.219842
    19  H    5.265453   3.953852   2.714675   2.061444   3.272689
    20  H    5.692847   4.208102   3.351406   2.051870   2.609506
    21  H    6.659604   5.308758   4.149027   3.281598   4.255686
    22  H    5.769147   4.415174   3.551490   2.609120   3.235581
    23  H    4.181976   3.380545   2.137986   2.762317   4.004875
    24  H    2.962491   2.786088   2.116427   3.393329   4.306021
    25  H    3.866326   3.366339   2.578168   3.382753   4.317140
                    6          7          8          9         10
     6  N    0.000000
     7  O    2.389705   0.000000
     8  C    2.766124   1.425999   0.000000
     9  C    3.626430   2.886420   4.309282   0.000000
    10  N    4.423967   3.692166   5.055571   1.469490   0.000000
    11  C    3.733860   4.822902   5.966495   3.058458   3.456502
    12  O    4.546590   5.381747   6.572857   3.340741   4.027651
    13  H    2.585043   4.965699   5.061134   5.738547   6.390951
    14  H    3.254762   5.488909   5.949796   5.444536   5.802658
    15  H    3.247888   5.487627   5.938248   5.445941   6.198607
    16  H    2.748633   2.082962   1.093691   4.772721   5.728996
    17  H    2.746138   2.082708   1.093729   4.795122   5.320089
    18  H    3.833075   2.015480   1.092730   4.770499   5.441768
    19  H    4.220829   3.784426   5.179903   1.092677   2.090927
    20  H    3.874742   2.473574   3.850897   1.097908   2.175040
    21  H    5.366078   4.361118   5.724606   2.053848   1.020453
    22  H    4.271034   3.330593   4.569847   2.031463   1.019429
    23  H    4.331865   5.050765   6.295113   2.888215   2.834808
    24  H    4.096557   5.583368   6.594966   4.106353   4.380780
    25  H    4.360837   5.416900   6.479059   3.808566   4.711411
                   11         12         13         14         15
    11  C    0.000000
    12  O    1.443186   0.000000
    13  H    4.361187   5.228322   0.000000
    14  H    3.379452   4.472993   1.769227   0.000000
    15  H    3.393415   3.962280   1.767917   1.766537   0.000000
    16  H    6.119960   6.597232   4.770005   5.906460   5.617396
    17  H    6.131979   6.941308   4.756592   5.632462   5.890500
    18  H    6.816761   7.350634   6.152092   7.017591   7.007229
    19  H    2.771876   2.608125   6.058590   5.655213   5.442743
    20  H    4.057918   4.191013   6.233340   6.204984   6.081742
    21  H    4.216483   4.558387   7.387775   6.788500   7.125155
    22  H    4.069739   4.831477   6.349059   5.873691   6.438107
    23  H    1.093032   2.014381   5.191190   4.074193   4.394496
    24  H    1.098844   2.110266   4.049753   2.757427   2.947426
    25  H    1.947574   0.969281   4.815489   4.290709   3.418079
                   16         17         18         19         20
    16  H    0.000000
    17  H    1.784967   0.000000
    18  H    1.792257   1.792501   0.000000
    19  H    5.489956   5.728585   5.665177   0.000000
    20  H    4.326888   4.522232   4.110211   1.778906   0.000000
    21  H    6.422941   6.072360   5.960533   2.412019   2.465310
    22  H    5.382167   4.708362   4.893161   2.926967   2.446171
    23  H    6.617349   6.430669   7.052996   2.642519   3.977865
    24  H    6.692858   6.627437   7.522848   3.870618   5.102302
    25  H    6.344277   6.877297   7.304825   3.142718   4.523219
                   21         22         23         24         25
    21  H    0.000000
    22  H    1.633697   0.000000
    23  H    3.504495   3.518636   0.000000
    24  H    5.170890   4.898221   1.767709   0.000000
    25  H    5.299779   5.436258   2.807651   2.376676   0.000000
 Stoichiometry    C7H13N3O2
 Framework group  C1[X(C7H13N3O2)]
 Deg. of freedom    69
 Full point group                 C1      NOp   1
 Largest Abelian subgroup         C1      NOp   1
 Largest concise Abelian subgroup C1      NOp   1
                         Standard orientation:                         
 ---------------------------------------------------------------------
 Center     Atomic      Atomic             Coordinates (Angstroms)
 Number     Number       Type             X           Y           Z
 ---------------------------------------------------------------------
      1          6           0        0.990381    2.923543   -0.454869
      2          6           0        0.364591    1.577725   -0.229355
      3          6           0        0.975680    0.343414   -0.142990
      4          7           0       -0.052865   -0.573135    0.064673
      5          6           0       -1.208758    0.149538    0.093196
      6          7           0       -1.006356    1.439559   -0.077189
      7          8           0       -2.374656   -0.486284    0.282774
      8          6           0       -3.523408    0.358290    0.305890
      9          6           0        0.080875   -2.003317    0.262707
     10          7           0        0.290065   -2.683036   -1.023226
     11          6           0        2.405014   -0.072503   -0.211116
     12          8           0        2.950968   -0.489817    1.057966
     13          1           0        0.207892    3.684763   -0.485979
     14          1           0        1.542265    2.970228   -1.401976
     15          1           0        1.691501    3.198380    0.343398
     16          1           0       -3.455128    1.085484    1.119945
     17          1           0       -3.635836    0.887316   -0.644760
     18          1           0       -4.373717   -0.308591    0.468075
     19          1           0        0.961231   -2.167505    0.888773
     20          1           0       -0.809320   -2.324957    0.819035
     21          1           0        0.346037   -3.691374   -0.876785
     22          1           0       -0.532345   -2.521187   -1.603470
     23          1           0        2.524271   -0.946124   -0.857091
     24          1           0        2.990105    0.746679   -0.651645
     25          1           0        2.810390    0.251838    1.665988
 ---------------------------------------------------------------------
 Rotational constants (GHZ):           1.1343747           0.7969478           0.5189915
 Standard basis: 6-31G(d) (6D, 7F)
 There are   206 symmetry adapted cartesian basis functions of A   symmetry.
 There are   206 symmetry adapted basis functions of A   symmetry.
   206 basis functions,   388 primitive gaussians,   206 cartesian basis functions
    46 alpha electrons       46 beta electrons
       nuclear repulsion energy       752.6732713817 Hartrees.
 NAtoms=   25 NActive=   25 NUniq=   25 SFac= 1.00D+00 NAtFMM=   60 NAOKFM=F Big=F
 Integral buffers will be    131072 words long.
 Raffenetti 2 integral format.
 Two-electron integral symmetry is turned on.
 Nuclear repulsion after empirical dispersion term =      752.6330953151 Hartrees.
 One-electron integrals computed using PRISM.
 NBasis=   206 RedAO= T EigKep=  8.55D-04  NBF=   206
 NBsUse=   206 1.00D-06 EigRej= -1.00D+00 NBFU=   206
 Initial guess from the checkpoint file:  "JID_2431.chk"
 B after Tr=    -0.000000   -0.000000    0.000000
         Rot=    0.999864   -0.008690    0.000058   -0.013992 Ang=  -1.89 deg.
 ExpMin= 1.61D-01 ExpMax= 5.48D+03 ExpMxC= 8.25D+02 IAcc=2 IRadAn=         4 AccDes= 0.00D+00
 Harris functional with IExCor=  402 and IRadAn=       4 diagonalized for initial guess.
 HarFok:  IExCor=  402 AccDes= 0.00D+00 IRadAn=         4 IDoV= 1 UseB2=F ITyADJ=14
 ICtDFT=  3500011 ScaDFX=  1.000000  1.000000  1.000000  1.000000
 FoFCou: FMM=F IPFlag=           0 FMFlag=      100000 FMFlg1=           0
         NFxFlg=           0 DoJE=T BraDBF=F KetDBF=T FulRan=T
         wScrn=  0.000000 ICntrl=       500 IOpCl=  0 I1Cent=   200000004 NGrid=           0
         NMat0=    1 NMatS0=      1 NMatT0=    0 NMatD0=    1 NMtDS0=    0 NMtDT0=    0
 Petite list used in FoFCou.
 Keep R1 ints in memory in canonical form, NReq=231739465.
 Requested convergence on RMS density matrix=1.00D-08 within  32 cycles.
 Requested convergence on MAX density matrix=1.00D-06.
 Requested convergence on             energy=1.00D-06.
 No special actions if energy rises.
 Integral accuracy reduced to 1.0D-05 until final iterations.
 Initial convergence to 1.0D-05 achieved.  Increase integral accuracy.
 SCF Done:  E(RB3LYP) =  -589.286140132     A.U. after   12 cycles
            NFock= 12  Conv=0.29D-08     -V/T= 2.0092
 QCSCF skips out because SCF is already converged.
 Calling FoFJK, ICntrl=      2127 FMM=F ISym2X=0 I1Cent= 0 IOpClX= 0 NMat=1 NMatS=1 NMatT=0.
 ***** Axes restored to original set *****
 -------------------------------------------------------------------
 Center     Atomic                   Forces (Hartrees/Bohr)
 Number     Number              X              Y              Z
 -------------------------------------------------------------------
      1        6          -0.000267597   -0.000116472    0.000312979
      2        6           0.001305517   -0.006413545    0.002017488
      3        6           0.002758670   -0.000903456   -0.009537385
      4        7          -0.001090071    0.000243935    0.008000785
      5        6           0.003233369    0.000314152   -0.008884079
      6        7          -0.003348271    0.003398844    0.004950453
      7        8          -0.000657960   -0.002477371    0.001459012
      8        6          -0.001493294    0.003107228    0.002918209
      9        6          -0.000596219   -0.003026973    0.000182563
     10        7           0.001567712    0.004114043   -0.000518646
     11        6          -0.001147616   -0.000860795    0.001686092
     12        8          -0.003325252    0.001507022   -0.001841167
     13        1          -0.000336944    0.000561638    0.000449190
     14        1           0.000007574   -0.000119466    0.000440202
     15        1          -0.000261483   -0.000179121    0.000388059
     16        1           0.000115509    0.000071156   -0.001182177
     17        1           0.000718580    0.000129691   -0.000957837
     18        1           0.000393391   -0.000343407   -0.000822280
     19        1          -0.000022240   -0.000642669    0.000279849
     20        1          -0.000696859    0.000252728   -0.000113708
     21        1           0.001909206    0.000444558   -0.000730540
     22        1          -0.001025086   -0.000493414    0.000303213
     23        1          -0.000828010    0.000101762    0.000304966
     24        1           0.001786345    0.000308082    0.000013646
     25        1           0.001301028    0.001021851    0.000881111
 -------------------------------------------------------------------
 Cartesian Forces:  Max     0.009537385 RMS     0.002443284

 GradGradGradGradGradGradGradGradGradGradGradGradGradGradGradGradGradGrad
 Berny optimization.
 Using GEDIIS/GDIIS optimizer.
 FormGI is forming the generalized inverse of G from B-inverse, IUseBI=4.
 Internal  Forces:  Max     0.004609683 RMS     0.001367103
 Search for a local minimum.
 Step number   2 out of a maximum of  125
 All quantities printed in internal units (Hartrees-Bohrs-Radians)
 Mixed Optimization -- RFO/linear search
 Update second derivatives using D2CorX and points    1    2
 DE= -7.82D-03 DEPred=-9.25D-03 R= 8.46D-01
 TightC=F SS=  1.41D+00  RLast= 3.20D-01 DXNew= 5.0454D-01 9.6008D-01
 Trust test= 8.46D-01 RLast= 3.20D-01 DXMaxT set to 5.05D-01
 ITU=  1  0
 Use linear search instead of GDIIS.
     Eigenvalues ---    0.00889   0.01020   0.01021   0.01059   0.01385
     Eigenvalues ---    0.01427   0.01523   0.01617   0.01665   0.02114
     Eigenvalues ---    0.02304   0.02434   0.02605   0.04649   0.05412
     Eigenvalues ---    0.06241   0.06687   0.07156   0.07488   0.07602
     Eigenvalues ---    0.09837   0.10086   0.10698   0.11959   0.13090
     Eigenvalues ---    0.14267   0.15773   0.16000   0.16000   0.16000
     Eigenvalues ---    0.16000   0.16000   0.16000   0.16000   0.16347
     Eigenvalues ---    0.21902   0.22717   0.24362   0.24972   0.24993
     Eigenvalues ---    0.24998   0.25000   0.25000   0.26687   0.34177
     Eigenvalues ---    0.34180   0.34291   0.34310   0.34313   0.34319
     Eigenvalues ---    0.34342   0.34358   0.34443   0.34454   0.34554
     Eigenvalues ---    0.35239   0.37472   0.38157   0.41825   0.43141
     Eigenvalues ---    0.43931   0.44318   0.44766   0.45520   0.48309
     Eigenvalues ---    0.50346   0.52903   0.59025   0.61649
 RFO step:  Lambda=-1.07700264D-03 EMin= 8.88948652D-03
 Quartic linear search produced a step of -0.04708.
 Iteration  1 RMS(Cart)=  0.03297113 RMS(Int)=  0.00066378
 Iteration  2 RMS(Cart)=  0.00080755 RMS(Int)=  0.00005224
 Iteration  3 RMS(Cart)=  0.00000039 RMS(Int)=  0.00005224
 Variable       Old X    -DE/DX   Delta X   Delta X   Delta X     New X
                                 (Linear)    (Quad)   (Total)
    R1        2.83692  -0.00164  -0.00182  -0.00093  -0.00275   2.83416
    R2        2.06380   0.00057   0.00021   0.00117   0.00138   2.06518
    R3        2.07334  -0.00027  -0.00025  -0.00027  -0.00052   2.07282
    R4        2.07383  -0.00029  -0.00027  -0.00026  -0.00053   2.07329
    R5        2.60783  -0.00371   0.00043  -0.00783  -0.00742   2.60041
    R6        2.61967   0.00282  -0.00103   0.00710   0.00607   2.62574
    R7        2.63282   0.00454  -0.00124   0.01166   0.01041   2.64324
    R8        2.81602  -0.00290  -0.00110  -0.00573  -0.00683   2.80919
    R9        2.57666   0.00010   0.00059  -0.00103  -0.00043   2.57623
   R10        2.74012  -0.00099   0.00007  -0.00261  -0.00254   2.73758
   R11        2.48853  -0.00461  -0.00035  -0.00656  -0.00690   2.48163
   R12        2.53500   0.00174  -0.00094   0.00463   0.00369   2.53869
   R13        2.69475   0.00295  -0.00025   0.00716   0.00691   2.70166
   R14        2.06678   0.00026   0.00017   0.00039   0.00056   2.06733
   R15        2.06685   0.00023   0.00016   0.00031   0.00048   2.06732
   R16        2.06496  -0.00095   0.00012  -0.00285  -0.00274   2.06222
   R17        2.77693  -0.00403  -0.00080  -0.00878  -0.00958   2.76735
   R18        2.06486   0.00034   0.00004   0.00086   0.00089   2.06576
   R19        2.07475   0.00001  -0.00035   0.00073   0.00038   2.07512
   R20        1.92838  -0.00104  -0.00024  -0.00175  -0.00199   1.92639
   R21        1.92644   0.00055   0.00007   0.00104   0.00111   1.92755
   R22        2.72723  -0.00296  -0.00207  -0.00254  -0.00461   2.72261
   R23        2.06553   0.00053   0.00001   0.00144   0.00146   2.06699
   R24        2.07651   0.00018  -0.00041   0.00132   0.00090   2.07742
   R25        1.83167   0.00152   0.00031   0.00212   0.00243   1.83411
    A1        1.90759  -0.00060   0.00141  -0.00633  -0.00493   1.90266
    A2        1.95789  -0.00030  -0.00138   0.00094  -0.00042   1.95747
    A3        1.96228  -0.00037  -0.00163   0.00104  -0.00058   1.96170
    A4        1.88195   0.00047   0.00022   0.00233   0.00254   1.88449
    A5        1.87959   0.00053   0.00036   0.00244   0.00279   1.88238
    A6        1.87119   0.00036   0.00111  -0.00016   0.00098   1.87218
    A7        2.24804  -0.00009   0.00012  -0.00070  -0.00060   2.24744
    A8        2.11540  -0.00245  -0.00073  -0.00795  -0.00869   2.10671
    A9        1.91974   0.00254   0.00060   0.00861   0.00910   1.92885
   A10        1.84505  -0.00193  -0.00089  -0.00407  -0.00509   1.83996
   A11        2.30705   0.00200  -0.00058   0.00784   0.00723   2.31428
   A12        2.13094  -0.00008   0.00148  -0.00413  -0.00267   2.12827
   A13        1.85488  -0.00125   0.00095  -0.00545  -0.00462   1.85026
   A14        2.21571  -0.00110   0.00030  -0.00496  -0.00473   2.21098
   A15        2.21192   0.00236  -0.00126   0.01121   0.00990   2.22182
   A16        1.96730   0.00261  -0.00086   0.01075   0.00987   1.97718
   A17        2.08120  -0.00018   0.00267  -0.00554  -0.00286   2.07834
   A18        2.23468  -0.00243  -0.00182  -0.00521  -0.00701   2.22767
   A19        1.83780  -0.00197   0.00018  -0.00978  -0.00965   1.82815
   A20        2.00613  -0.00222  -0.00070  -0.00702  -0.00773   1.99841
   A21        1.93432  -0.00042   0.00015  -0.00379  -0.00367   1.93066
   A22        1.93392  -0.00047   0.00016  -0.00415  -0.00401   1.92990
   A23        1.84192   0.00032   0.00202  -0.00019   0.00183   1.84374
   A24        1.90897  -0.00091   0.00102  -0.01096  -0.00998   1.89899
   A25        1.92185   0.00076  -0.00170   0.00983   0.00813   1.92998
   A26        1.92219   0.00079  -0.00171   0.01004   0.00833   1.93052
   A27        1.92820  -0.00273  -0.00247  -0.00813  -0.01059   1.91761
   A28        1.87630   0.00088   0.00111   0.00088   0.00194   1.87824
   A29        1.85810   0.00119   0.00242   0.00143   0.00396   1.86206
   A30        1.89357   0.00029   0.00226  -0.00610  -0.00391   1.88966
   A31        2.00792   0.00049  -0.00314   0.00736   0.00421   2.01213
   A32        1.89537  -0.00005   0.00001   0.00456   0.00458   1.89995
   A33        1.91696  -0.00246  -0.00102  -0.01169  -0.01268   1.90428
   A34        1.88579   0.00193   0.00034   0.01155   0.01191   1.89770
   A35        1.85752   0.00038  -0.00023   0.00444   0.00425   1.86177
   A36        1.98598  -0.00261  -0.00595  -0.00154  -0.00749   1.97849
   A37        1.93344   0.00028   0.00139  -0.00034   0.00100   1.93445
   A38        1.89756   0.00090   0.00268  -0.00268   0.00017   1.89773
   A39        1.82070   0.00115   0.00383  -0.00141   0.00234   1.82304
   A40        1.94623  -0.00007  -0.00231  -0.00214  -0.00445   1.94178
   A41        1.87635   0.00050   0.00046   0.00891   0.00943   1.88578
   A42        1.84990   0.00134   0.00037   0.00719   0.00756   1.85746
    D1        3.12331  -0.00019   0.00032  -0.01200  -0.01166   3.11165
    D2       -0.01511   0.00014  -0.00019   0.00836   0.00814  -0.00696
    D3        1.03694  -0.00019   0.00000  -0.01130  -0.01129   1.02565
    D4       -2.10148   0.00014  -0.00050   0.00906   0.00851  -2.09296
    D5       -1.07367  -0.00017   0.00064  -0.01253  -0.01184  -1.08551
    D6        2.07110   0.00016   0.00014   0.00783   0.00796   2.07906
    D7       -3.13632  -0.00022   0.00022  -0.00977  -0.00948   3.13738
    D8        0.02428   0.00013  -0.00092   0.01263   0.01179   0.03607
    D9        0.00237  -0.00052   0.00068  -0.02833  -0.02768  -0.02531
   D10       -3.12021  -0.00017  -0.00045  -0.00593  -0.00641  -3.12662
   D11        3.13651   0.00007   0.00004   0.00107   0.00117   3.13768
   D12       -0.00245   0.00034  -0.00038   0.01797   0.01766   0.01521
   D13       -0.00137   0.00049  -0.00071   0.02723   0.02640   0.02504
   D14       -3.10545   0.00005  -0.00047   0.00458   0.00416  -3.10129
   D15        3.12360   0.00022   0.00029   0.00780   0.00809   3.13168
   D16        0.01951  -0.00022   0.00054  -0.01484  -0.01415   0.00536
   D17        1.88619  -0.00003  -0.00330   0.03844   0.03514   1.92133
   D18       -2.35234  -0.00007  -0.00150   0.03541   0.03393  -2.31841
   D19       -0.29416   0.00126   0.00180   0.04443   0.04614  -0.24802
   D20       -1.23380   0.00038  -0.00460   0.06386   0.05930  -1.17450
   D21        0.81086   0.00034  -0.00280   0.06083   0.05810   0.86895
   D22        2.86903   0.00167   0.00049   0.06985   0.07031   2.93934
   D23       -0.00014  -0.00030   0.00053  -0.01753  -0.01701  -0.01716
   D24       -3.14049  -0.00033   0.00022  -0.01787  -0.01764   3.12505
   D25        3.10405   0.00004   0.00033   0.00460   0.00499   3.10905
   D26       -0.03630   0.00001   0.00002   0.00426   0.00437  -0.03193
   D27       -1.38060   0.00043  -0.00270   0.02843   0.02577  -1.35483
   D28        0.68267  -0.00023  -0.00075   0.01707   0.01636   0.69903
   D29        2.71115   0.00073   0.00115   0.02347   0.02459   2.73574
   D30        1.80592  -0.00001  -0.00246   0.00175  -0.00071   1.80521
   D31       -2.41400  -0.00066  -0.00052  -0.00962  -0.01012  -2.42412
   D32       -0.38552   0.00030   0.00138  -0.00321  -0.00189  -0.38740
   D33        0.00158  -0.00002  -0.00010   0.00005   0.00004   0.00162
[...]
   140    O    7  px     Ryd( 4p)     0.00042       1.22569
   141    O    7  px     Ryd( 5p)     0.00002       5.33397
   142    O    7  py     Val( 2p)     0.86040      -0.24101
   143    O    7  py     Ryd( 3p)     0.00093       1.01249
   144    O    7  py     Ryd( 4p)     0.00026       1.29818
   145    O    7  py     Ryd( 5p)     0.00004       5.20142
   146    O    7  pz     Val( 2p)     0.91912      -0.22094
   147    O    7  pz     Ryd( 3p)     0.00156       0.64208
   148    O    7  pz     Ryd( 4p)     0.00028       1.02246
   149    O    7  pz     Ryd( 5p)     0.00000       5.04805
   150    O    7  dxy    Ryd( 3d)     0.00073       3.69251
   151    O    7  dxz    Ryd( 3d)     0.00012       3.09969
   152    O    7  dyz    Ryd( 3d)     0.00046       3.02922
   153    O    7  dx2y2  Ryd( 3d)     0.00037       3.32712
   154    O    7  dz2    Ryd( 3d)     0.00035       3.39561
 
   155    C    8  S      Cor( 1S)     0.99959     -10.00129
   156    C    8  S      Val( 2S)     0.54150      -0.17886
   157    C    8  S      Ryd( 4S)     0.00039       1.32932
   158    C    8  S      Ryd( 3S)     0.00089       1.04834
   159    C    8  S      Ryd( 5S)     0.00000      22.77152
   160    C    8  px     Val( 2p)     0.41902       0.01088
   161    C    8  px     Ryd( 3p)     0.00108       0.89802
   162    C    8  px     Ryd( 4p)     0.00012       0.98550
   163    C    8  px     Ryd( 5p)     0.00003       2.47203
   164    C    8  py     Val( 2p)     0.52986       0.00406
   165    C    8  py     Ryd( 3p)     0.00161       0.79929
   166    C    8  py     Ryd( 4p)     0.00018       1.06434
   167    C    8  py     Ryd( 5p)     0.00002       2.37792
   168    C    8  pz     Val( 2p)     0.59786      -0.00968
   169    C    8  pz     Ryd( 3p)     0.00026       0.70666
   170    C    8  pz     Ryd( 4p)     0.00028       1.10370
   171    C    8  pz     Ryd( 5p)     0.00001       2.42558
   172    C    8  dxy    Ryd( 3d)     0.00091       2.35354
   173    C    8  dxz    Ryd( 3d)     0.00057       1.81157
   174    C    8  dyz    Ryd( 3d)     0.00060       2.30743
   175    C    8  dx2y2  Ryd( 3d)     0.00062       2.06256
   176    C    8  dz2    Ryd( 3d)     0.00049       2.22041
 
   177    C    9  S      Cor( 1S)     0.99963      -9.99917
   178    C    9  S      Val( 2S)     0.48701      -0.12056
   179    C    9  S      Ryd( 4S)     0.00242       2.16666
   180    C    9  S      Ryd( 3S)     0.00148       2.11427
   181    C    9  S      Ryd( 5S)     0.00006      18.35544
   182    C    9  px     Val( 2p)     0.60115       0.00152
   183    C    9  px     Ryd( 3p)     0.00331       0.84961
   184    C    9  px     Ryd( 4p)     0.00032       1.08509
   185    C    9  px     Ryd( 5p)     0.00006       2.56120
   186    C    9  py     Val( 2p)     0.40773       0.04187
   187    C    9  py     Ryd( 4p)     0.00135       1.16986
   188    C    9  py     Ryd( 3p)     0.00036       1.11009
   189    C    9  py     Ryd( 5p)     0.00006       2.44380
   190    C    9  pz     Val( 2p)     0.48722       0.01599
   191    C    9  pz     Ryd( 3p)     0.00103       1.23367
   192    C    9  pz     Ryd( 4p)     0.00050       1.53906
   193    C    9  pz     Ryd( 5p)     0.00008       2.33528
   194    C    9  dxy    Ryd( 3d)     0.00030       2.14532
   195    C    9  dxz    Ryd( 3d)     0.00087       2.31580
   196    C    9  dyz    Ryd( 3d)     0.00069       2.07501
   197    C    9  dx2y2  Ryd( 3d)     0.00069       2.39956
   198    C    9  dz2    Ryd( 3d)     0.00066       2.19628
 
   199    N   10  S      Cor( 1S)     0.99977     -14.02440
   200    N   10  S      Val( 2S)     0.71446      -0.47993
   201    N   10  S      Ryd( 3S)     0.00061       0.87530
   202    N   10  S      Ryd( 4S)     0.00042       1.68912
   203    N   10  S      Ryd( 5S)     0.00000      34.73367
   204    N   10  px     Val( 2p)     0.78358      -0.09673
   205    N   10  px     Ryd( 3p)     0.00222       0.49536
   206    N   10  px     Ryd( 4p)     0.00047       0.95998
   207    N   10  px     Ryd( 5p)     0.00001       4.20537
   208    N   10  py     Val( 2p)     0.73605      -0.08823
   209    N   10  py     Ryd( 3p)     0.00140       0.59491
   210    N   10  py     Ryd( 4p)     0.00051       0.96304
   211    N   10  py     Ryd( 5p)     0.00001       4.29187
   212    N   10  pz     Val( 2p)     0.67807      -0.08750
   213    N   10  pz     Ryd( 3p)     0.00191       0.65249
   214    N   10  pz     Ryd( 4p)     0.00050       0.99239
   215    N   10  pz     Ryd( 5p)     0.00001       4.29145
   216    N   10  dxy    Ryd( 3d)     0.00030       2.56012
   217    N   10  dxz    Ryd( 3d)     0.00052       2.76633
   218    N   10  dyz    Ryd( 3d)     0.00026       2.66284
   219    N   10  dx2y2  Ryd( 3d)     0.00062       2.81533
   220    N   10  dz2    Ryd( 3d)     0.00041       2.75435
 
   221    C   11  S      Cor( 1S)     0.99954      -9.98953
   222    C   11  S      Val( 2S)     0.49707      -0.12644
   223    C   11  S      Ryd( 4S)     0.00189       1.30936
   224    C   11  S      Ryd( 3S)     0.00073       0.89082
   225    C   11  S      Ryd( 5S)     0.00002      22.36995
   226    C   11  px     Val( 2p)     0.51446       0.02675
   227    C   11  px     Ryd( 4p)     0.00155       0.96129
   228    C   11  px     Ryd( 3p)     0.00009       0.81075
   229    C   11  px     Ryd( 5p)     0.00008       2.62643
   230    C   11  py     Val( 2p)     0.57633       0.01115
   231    C   11  py     Ryd( 4p)     0.00210       1.06795
   232    C   11  py     Ryd( 3p)     0.00008       0.91788
   233    C   11  py     Ryd( 5p)     0.00003       2.53074
   234    C   11  pz     Val( 2p)     0.43218       0.01970
   235    C   11  pz     Ryd( 3p)     0.00116       0.84262
   236    C   11  pz     Ryd( 4p)     0.00013       0.89060
   237    C   11  pz     Ryd( 5p)     0.00008       2.74206
   238    C   11  dxy    Ryd( 3d)     0.00039       2.27008
   239    C   11  dxz    Ryd( 3d)     0.00100       1.97646
   240    C   11  dyz    Ryd( 3d)     0.00098       2.25365
   241    C   11  dx2y2  Ryd( 3d)     0.00058       2.41120
   242    C   11  dz2    Ryd( 3d)     0.00083       2.16733
 
   243    O   12  S      Cor( 1S)     0.99991     -18.82003
   244    O   12  S      Val( 2S)     0.84779      -0.79738
   245    O   12  S      Ryd( 3S)     0.00065       1.00531
   246    O   12  S      Ryd( 4S)     0.00035       1.10475
   247    O   12  S      Ryd( 5S)     0.00000      49.69369
   248    O   12  px     Val( 2p)     0.94186      -0.19617
   249    O   12  px     Ryd( 3p)     0.00130       0.61856
   250    O   12  px     Ryd( 4p)     0.00040       1.26376
   251    O   12  px     Ryd( 5p)     0.00001       5.17241
   252    O   12  py     Val( 2p)     0.87539      -0.19314
   253    O   12  py     Ryd( 3p)     0.00058       0.51624
   254    O   12  py     Ryd( 4p)     0.00025       1.24105
   255    O   12  py     Ryd( 5p)     0.00001       5.26170
   256    O   12  pz     Val( 2p)     0.69890      -0.16777
   257    O   12  pz     Ryd( 3p)     0.00099       0.65978
   258    O   12  pz     Ryd( 4p)     0.00047       1.20890
   259    O   12  pz     Ryd( 5p)     0.00000       5.39225
   260    O   12  dxy    Ryd( 3d)     0.00048       3.21628
   261    O   12  dxz    Ryd( 3d)     0.00022       3.28527
   262    O   12  dyz    Ryd( 3d)     0.00053       3.54750
   263    O   12  dx2y2  Ryd( 3d)     0.00045       3.15355
   264    O   12  dz2    Ryd( 3d)     0.00019       3.35150
 
   265    H   13  S      Val( 1S)     0.39455       0.13416
   266    H   13  S      Ryd( 2S)     0.00061       0.25585
   267    H   13  S      Ryd( 3S)     0.00080       0.61001
   268    H   13  S      Ryd( 4S)     0.00011       2.23272
   269    H   13  px     Ryd( 2p)     0.00008       1.94129
   270    H   13  py     Ryd( 2p)     0.00011       2.23354
   271    H   13  pz     Ryd( 2p)     0.00011       2.39011
 
   272    H   14  S      Val( 1S)     0.39682       0.13386
   273    H   14  S      Ryd( 2S)     0.00032       0.30104
   274    H   14  S      Ryd( 3S)     0.00086       0.63299
   275    H   14  S      Ryd( 4S)     0.00010       2.22853
   276    H   14  px     Ryd( 2p)     0.00009       1.98482
   277    H   14  py     Ryd( 2p)     0.00009       2.01284
   278    H   14  pz     Ryd( 2p)     0.00012       2.55744
 
   279    H   15  S      Val( 1S)     0.39798       0.12980
   280    H   15  S      Ryd( 2S)     0.00048       0.48203
   281    H   15  S      Ryd( 3S)     0.00056       0.76577
   282    H   15  S      Ryd( 4S)     0.00006       1.90753
   283    H   15  px     Ryd( 2p)     0.00014       2.81936
   284    H   15  py     Ryd( 2p)     0.00008       1.86013
   285    H   15  pz     Ryd( 2p)     0.00006       1.84176
 
   286    H   16  S      Val( 1S)     0.40896       0.10865
   287    H   16  S      Ryd( 2S)     0.00088       0.31225
   288    H   16  S      Ryd( 3S)     0.00085       0.55318
   289    H   16  S      Ryd( 4S)     0.00010       2.21024
   290    H   16  px     Ryd( 2p)     0.00006       1.84293
   291    H   16  py     Ryd( 2p)     0.00013       2.28271
   292    H   16  pz     Ryd( 2p)     0.00015       2.43530
 
   293    H   17  S      Val( 1S)     0.40907       0.11022
   294    H   17  S      Ryd( 2S)     0.00080       0.31879
   295    H   17  S      Ryd( 3S)     0.00090       0.54920
   296    H   17  S      Ryd( 4S)     0.00010       2.21381
   297    H   17  px     Ryd( 2p)     0.00006       1.87281
   298    H   17  py     Ryd( 2p)     0.00011       2.09834
   299    H   17  pz     Ryd( 2p)     0.00017       2.57829
 
   300    H   18  S      Val( 1S)     0.40792       0.10761
   301    H   18  S      Ryd( 2S)     0.00093       0.27260
   302    H   18  S      Ryd( 3S)     0.00038       0.60790
   303    H   18  S      Ryd( 4S)     0.00006       2.18399
   304    H   18  px     Ryd( 2p)     0.00008       2.38314
   305    H   18  py     Ryd( 2p)     0.00016       2.23136
   306    H   18  pz     Ryd( 2p)     0.00009       1.84686
 
   307    H   19  S      Val( 1S)     0.39493       0.13569
   308    H   19  S      Ryd( 2S)     0.00119       0.48127
   309    H   19  S      Ryd( 4S)     0.00051       1.82891
   310    H   19  S      Ryd( 3S)     0.00002       1.01412
   311    H   19  px     Ryd( 2p)     0.00014       2.51239
   312    H   19  py     Ryd( 2p)     0.00007       1.93353
   313    H   19  pz     Ryd( 2p)     0.00012       2.36361
 
   314    H   20  S      Val( 1S)     0.40445       0.12323
   315    H   20  S      Ryd( 2S)     0.00197       0.39530
   316    H   20  S      Ryd( 4S)     0.00066       1.57195
   317    H   20  S      Ryd( 3S)     0.00005       1.18905
   318    H   20  px     Ryd( 2p)     0.00015       2.51503
   319    H   20  py     Ryd( 2p)     0.00010       2.05500
   320    H   20  pz     Ryd( 2p)     0.00007       2.11493
 
   321    H   21  S      Val( 1S)     0.31453       0.17673
   322    H   21  S      Ryd( 2S)     0.00355       0.36886
   323    H   21  S      Ryd( 4S)     0.00015       1.99844
   324    H   21  S      Ryd( 3S)     0.00003       0.91076
   325    H   21  px     Ryd( 2p)     0.00029       1.99352
   326    H   21  py     Ryd( 2p)     0.00035       2.59360
   327    H   21  pz     Ryd( 2p)     0.00025       1.85060
 
   328    H   22  S      Val( 1S)     0.31965       0.18211
   329    H   22  S      Ryd( 2S)     0.00181       0.36222
   330    H   22  S      Ryd( 4S)     0.00032       1.81423
   331    H   22  S      Ryd( 3S)     0.00003       1.14483
   332    H   22  px     Ryd( 2p)     0.00035       2.41517
   333    H   22  py     Ryd( 2p)     0.00024       1.86323
   334    H   22  pz     Ryd( 2p)     0.00023       2.18587
 
   335    H   23  S      Val( 1S)     0.39704       0.14041
   336    H   23  S      Ryd( 2S)     0.00092       0.40733
   337    H   23  S      Ryd( 3S)     0.00057       1.41192
   338    H   23  S      Ryd( 4S)     0.00014       1.53448
   339    H   23  px     Ryd( 2p)     0.00010       2.00612
   340    H   23  py     Ryd( 2p)     0.00013       2.41654
   341    H   23  pz     Ryd( 2p)     0.00019       2.39683
 
   342    H   24  S      Val( 1S)     0.41413       0.11366
   343    H   24  S      Ryd( 2S)     0.00040       0.65144
   344    H   24  S      Ryd( 3S)     0.00078       1.04498
   345    H   24  S      Ryd( 4S)     0.00007       1.60861
   346    H   24  px     Ryd( 2p)     0.00017       2.14336
   347    H   24  py     Ryd( 2p)     0.00015       2.51930
   348    H   24  pz     Ryd( 2p)     0.00006       1.96531
 
   349    H   25  S      Val( 1S)     0.26775       0.19761
   350    H   25  S      Ryd( 2S)     0.00251       0.32197
   351    H   25  S      Ryd( 4S)     0.00034       2.26343
   352    H   25  S      Ryd( 3S)     0.00009       0.80844
   353    H   25  px     Ryd( 2p)     0.00079       1.81477
   354    H   25  py     Ryd( 2p)     0.00058       2.12204
   355    H   25  pz     Ryd( 2p)     0.00058       2.29975

 WARNING:  Population inversion found on atom  C    2
           Population inversion found on atom  C    3
           Population inversion found on atom  N    4
           Population inversion found on atom  C    5
           Population inversion found on atom  N    6
           Population inversion found on atom  C    8
           Population inversion found on atom  C    9
           Population inversion found on atom  C   11
           Population inversion found on atom  H   13
           Population inversion found on atom  H   14
           Population inversion found on atom  H   15
           Population inversion found on atom  H   17
           Population inversion found on atom  H   19
           Population inversion found on atom  H   20
           Population inversion found on atom  H   21
           Population inversion found on atom  H   22
           Population inversion found on atom  H   24
           Population inversion found on atom  H   25


 Summary of Natural Population Analysis:                  
                                                          
                                       Natural Population 
                Natural  -----------------------------------------------
    Atom  No    Charge         Core      Valence    Rydberg      Total
 -----------------------------------------------------------------------
      C    1   -0.29355      0.99963     2.28878    0.00514     3.29355
      C    2    0.06661      0.99948     1.92104    0.01286     2.93339
      C    3    0.03389      0.99944     1.95405    0.01261     2.96611
      N    4   -0.22194      0.99959     2.70993    0.01242     3.72194
      C    5    0.36306      0.99949     1.62006    0.01738     2.63694
      N    6   -0.29890      0.99966     2.78896    0.01027     3.79890
      O    7   -0.27233      0.99985     3.26365    0.00883     4.27233
      C    8   -0.09589      0.99959     2.08824    0.00806     3.09589
      C    9    0.00301      0.99963     1.98311    0.01425     2.99699
      N   10   -0.42210      0.99977     2.91216    0.01017     3.92210
      C   11   -0.03132      0.99954     2.02005    0.01172     3.03132
      O   12   -0.37074      0.99991     3.36394    0.00690     4.37074
      H   13    0.10362      0.00000     0.39455    0.00183     0.39638
      H   14    0.10160      0.00000     0.39682    0.00158     0.39840
      H   15    0.10064      0.00000     0.39798    0.00139     0.39936
      H   16    0.08886      0.00000     0.40896    0.00217     0.41114
      H   17    0.08878      0.00000     0.40907    0.00214     0.41122
      H   18    0.09038      0.00000     0.40792    0.00170     0.40962
      H   19    0.10302      0.00000     0.39493    0.00205     0.39698
      H   20    0.09255      0.00000     0.40445    0.00299     0.40745
      H   21    0.18085      0.00000     0.31453    0.00462     0.31915
      H   22    0.17737      0.00000     0.31965    0.00299     0.32263
      H   23    0.10090      0.00000     0.39704    0.00206     0.39910
      H   24    0.08424      0.00000     0.41413    0.00163     0.41576
      H   25    0.22737      0.00000     0.26775    0.00488     0.27263
 =======================================================================
   * Total *    0.00000     11.99558    33.84176    0.16265    46.00000

                                 Natural Population      
 --------------------------------------------------------
   Core                      11.99558 ( 99.9632% of  12)
   Valence                   33.84176 ( 99.5346% of  34)
   Natural Minimal Basis     45.83735 ( 99.6464% of  46)
   Natural Rydberg Basis      0.16265 (  0.3536% of  46)
 --------------------------------------------------------

    Atom  No          Natural Electron Configuration
 ----------------------------------------------------------------------------
      C    1      [core]2S( 0.54)2p( 1.75)
      C    2      [core]2S( 0.42)2p( 1.50)
      C    3      [core]2S( 0.42)2p( 1.53)3p( 0.01)
      N    4      [core]2S( 0.60)2p( 2.11)
      C    5      [core]2S( 0.35)2p( 1.27)3p( 0.01)3d( 0.01)
      N    6      [core]2S( 0.71)2p( 2.08)
      O    7      [core]2S( 0.80)2p( 2.46)
      C    8      [core]2S( 0.54)2p( 1.55)
      C    9      [core]2S( 0.49)2p( 1.50)
      N   10      [core]2S( 0.71)2p( 2.20)3p( 0.01)
      C   11      [core]2S( 0.50)2p( 1.52)
      O   12      [core]2S( 0.85)2p( 2.52)
      H   13            1S( 0.39)
      H   14            1S( 0.40)
      H   15            1S( 0.40)
      H   16            1S( 0.41)
      H   17            1S( 0.41)
      H   18            1S( 0.41)
      H   19            1S( 0.39)
      H   20            1S( 0.40)
      H   21            1S( 0.31)
      H   22            1S( 0.32)
      H   23            1S( 0.40)
      H   24            1S( 0.41)
      H   25            1S( 0.27)


 NBO analysis skipped by request.
 1\1\GINC-NODE202\SP\UB3LYP\6-311++G(d,p)\C7H13N3O2(1-,2)\VSC10255\09-D
 ec-2020\0\\# B3LYP/6-311++G(d,p) empiricaldispersion=gd3bj scf=xqc pop
 =npa geom=check\\CID_141279121_JID_2431_Energie_anion\\-1,2\C,0,0.9964
 916261,-0.0090648183,0.015582675\C,0,0.5906578401,-0.4844107982,1.3729
 456088\C,0,0.6564177561,-1.7500583683,1.9040635344\N,0,0.1516790661,-1
 .633180343,3.2097356732\C,0,-0.1972249929,-0.3244048436,3.3574082824\N
 ,0,0.0475166522,0.4058046251,2.2965166724\O,0,-0.7334056331,0.08069231
 74,4.5222582407\C,0,-1.0273626307,1.4810752577,4.581921338\C,0,-0.0208
 697769,-2.7050196525,4.1723280476\N,0,-1.1509743388,-3.5504628197,3.79
 76270266\C,0,1.1536137389,-3.0489246614,1.3797435635\O,0,2.3028882159,
 -3.5385066118,2.0937697673\H,0,1.7373506504,0.7960368661,0.0891190093\
 H,0,0.1364622048,0.3954169098,-0.5316424085\H,0,1.4277705613,-0.818344
 4098,-0.5814291379\H,0,-0.1163763804,2.0711001325,4.4449608484\H,0,-1.
 7447696744,1.7562406459,3.80339886\H,0,-1.449895931,1.649230954,5.5733
 512682\H,0,0.8829578816,-3.3183887707,4.1510777442\H,0,-0.1040796157,-
 2.2245322676,5.1557166077\H,0,-1.142229294,-4.3991110121,4.3601625894\
 H,0,-2.0259698366,-3.0672332523,3.9947915686\H,0,0.3983132937,-3.83092
 30397,1.4984827987\H,0,1.3709634089,-2.9441093532,0.3077060333\H,0,2.9
 454552084,-2.8108026863,2.1065137888\\Version=ES64L-G16RevA.03\State=2
 -A\HF=-589.459621\S2=0.750101\S2-1=0.\S2A=0.75\RMSD=3.887e-09\Dipole=0
 .3474838,0.8552954,-1.0610835\Quadrupole=5.6035911,-6.1513652,0.547774
 1,1.1289553,10.1705026,2.4667035\PG=C01 [X(C7H13N3O2)]\\@


 AND THIS OUR LIFE, EXEMPT FROM PUBLIC HAUNT,
 FINDS TONGUES IN TREES, BOOKS IN THE RUNNING BROOKS,
 SERMONS IN STONES, AND GOOD IN EVERYTHING.
 I WOULD NOT CHANGE IT. -- W. SHAKESPEARE
 AS YOU LIKE IT, ACT II, SCENE 1.
 Job cpu time:       0 days  0 hours 25 minutes 15.5 seconds.
 Elapsed time:       0 days  0 hours 10 minutes 21.5 seconds.
 File lengths (MBytes):  RWF=    176 Int=      0 D2E=      0 Chk=     16 Scr=      8
 Normal termination of Gaussian 16 at Wed Dec  9 17:51:02 2020.
