 Entering Gaussian System, Link 0=g16
 Initial command:
 /apps/brussel/CO7/skylake/software/Gaussian/G16.A.03-intel-2017b/g16/l1.exe "/scratch/brussel/102/vsc10255/3570287[10727].master01.hydra.brussel.vsc/Gau-138461.inp" -scrdir="/scratch/brussel/102/vsc10255/3570287[10727].master01.hydra.brussel.vsc/"
 Entering Link 1 = /apps/brussel/CO7/skylake/software/Gaussian/G16.A.03-intel-2017b/g16/l1.exe.bin PID=    138462.
  
 Copyright (c) 1988,1990,1992,1993,1995,1998,2003,2009,2016,
            Gaussian, Inc.  All Rights Reserved.
  
 This is part of the Gaussian(R) 16 program.  It is based on
 the Gaussian(R) 09 system (copyright 2009, Gaussian, Inc.),
 the Gaussian(R) 03 system (copyright 2003, Gaussian, Inc.),
 the Gaussian(R) 98 system (copyright 1998, Gaussian, Inc.),
 the Gaussian(R) 94 system (copyright 1995, Gaussian, Inc.),
 the Gaussian 92(TM) system (copyright 1992, Gaussian, Inc.),
 the Gaussian 90(TM) system (copyright 1990, Gaussian, Inc.),
 the Gaussian 88(TM) system (copyright 1988, Gaussian, Inc.),
 the Gaussian 86(TM) system (copyright 1986, Carnegie Mellon
 University), and the Gaussian 82(TM) system (copyright 1983,
 Carnegie Mellon University). Gaussian is a federally registered
 trademark of Gaussian, Inc.
  
 This software contains proprietary and confidential information,
 including trade secrets, belonging to Gaussian, Inc.
  
 This software is provided under written license and may be
 used, copied, transmitted, or stored only in accord with that
 written license.
  
 The following legend is applicable only to US Government
 contracts under FAR:
  
                    RESTRICTED RIGHTS LEGEND
  
 Use, reproduction and disclosure by the US Government is
 subject to restrictions as set forth in subparagraphs (a)
 and (c) of the Commercial Computer Software - Restricted
 Rights clause in FAR 52.227-19.
  
 Gaussian, Inc.
 340 Quinnipiac St., Bldg. 40, Wallingford CT 06492
  
  
 ---------------------------------------------------------------
 Warning -- This program may not be used in any manner that
 competes with the business of Gaussian, Inc. or will provide
 assistance to any competitor of Gaussian, Inc.  The licensee
 of this program is prohibited from giving any competitor of
 Gaussian, Inc. access to this program.  By using this program,
 the user acknowledges that Gaussian, Inc. is engaged in the
 business of creating and licensing software in the field of
 computational chemistry and represents and warrants to the
 licensee that it is not a competitor of Gaussian, Inc. and that
 it will not use this program in any manner prohibited above.
 ---------------------------------------------------------------
  

 Cite this work as:
 Gaussian 16, Revision A.03,
 M. J. Frisch, G. W. Trucks, H. B. Schlegel, G. E. Scuseria, 
 M. A. Robb, J. R. Cheeseman, G. Scalmani, V. Barone, 
 G. A. Petersson, H. Nakatsuji, X. Li, M. Caricato, A. V. Marenich, 
 J. Bloino, B. G. Janesko, R. Gomperts, B. Mennucci, H. P. Hratchian, 
 J. V. Ortiz, A. F. Izmaylov, J. L. Sonnenberg, D. Williams-Young, 
 F. Ding, F. Lipparini, F. Egidi, J. Goings, B. Peng, A. Petrone, 
 T. Henderson, D. Ranasinghe, V. G. Zakrzewski, J. Gao, N. Rega, 
 G. Zheng, W. Liang, M. Hada, M. Ehara, K. Toyota, R. Fukuda, 
 J. Hasegawa, M. Ishida, T. Nakajima, Y. Honda, O. Kitao, H. Nakai, 
 T. Vreven, K. Throssell, J. A. Montgomery, Jr., J. E. Peralta, 
 F. Ogliaro, M. J. Bearpark, J. J. Heyd, E. N. Brothers, K. N. Kudin, 
 V. N. Staroverov, T. A. Keith, R. Kobayashi, J. Normand, 
 K. Raghavachari, A. P. Rendell, J. C. Burant, S. S. Iyengar, 
 J. Tomasi, M. Cossi, J. M. Millam, M. Klene, C. Adamo, R. Cammi, 
 J. W. Ochterski, R. L. Martin, K. Morokuma, O. Farkas, 
 J. B. Foresman, and D. J. Fox, Gaussian, Inc., Wallingford CT, 2016.
 
 ******************************************
 Gaussian 16:  ES64L-G16RevA.03 25-Dec-2016
                13-Dec-2020 
 ******************************************
 %chk=JID_10727.chk
 %mem=8GB
 %nprocshared=4
 Will use up to    4 processors via shared memory.
 -----------------------------------------------------------
 # opt freq B3LYP/6-31G(d) empiricaldispersion=gd3bj scf=xqc
 -----------------------------------------------------------
 1/18=20,19=15,26=3,38=1/1,3;
 2/9=110,12=2,17=6,18=5,40=1/2;
 3/5=1,6=6,7=1,11=2,25=1,30=1,71=1,74=-5,124=41/1,2,3;
 4//1;
 5/5=2,8=3,13=1,38=5/2,8;
 6/7=2,8=2,9=2,10=2,28=1/1;
 7//1,2,3,16;
 1/18=20,19=15,26=3/3(2);
 2/9=110/2;
 99//99;
 2/9=110/2;
 3/5=1,6=6,7=1,11=2,25=1,30=1,71=1,74=-5,124=41/1,2,3;
 4/5=5,16=3,69=1/1;
 5/5=2,8=3,13=1,38=5/2,8;
 7//1,2,3,16;
 1/18=20,19=15,26=3/3(-5);
 2/9=110/2;
 6/7=2,8=2,9=2,10=2,19=2,28=1/1;
 99/9=1/99;
 --------------------------------
 CID_123919256_JID_10727_neutraal
 --------------------------------
 Symbolic Z-matrix:
 Charge =  0 Multiplicity = 1
 C                     1.216    -1.504     0.089 
 C                     2.44545  -0.78624  -0.46441 
 O                     2.55619   0.50898   0.12221 
 C                     1.47728   1.37591  -0.26643 
 C                     0.13403   0.70403  -0.19516 
 C                     0.00651  -0.62031  -0.01405 
 N                    -1.25117  -1.16225   0.03647 
 C                    -2.38165  -0.38865  -0.10082 
 N                    -2.37802   0.8888   -0.2996 
 C                    -1.08248   1.57033  -0.37477 
 O                    -1.01704   2.61741   0.57443 
 C                    -3.73542  -1.0991    0.02628 
 N                    -4.07643  -1.18658   1.45003 
 C                    -5.31892  -1.91697   1.68481 
 C                    -5.14908  -3.41513   1.59099 
 C                    -5.62456  -4.12287   0.47817 
 C                    -5.45802  -5.50647   0.39535 
 C                    -4.81421  -6.19564   1.42163 
 C                    -4.33593  -5.50334   2.53228 
 C                    -4.50134  -4.1203    2.61711 
 H                     1.06554  -2.44036  -0.45948 
 H                     1.37251  -1.75168   1.14573 
 H                     2.40667  -0.69446  -1.55706 
 H                     3.34927  -1.35024  -0.21243 
 H                     1.5187    2.23788   0.40632 
 H                     1.66926   1.7327   -1.28458 
 H                    -1.33547  -2.15359   0.22707 
 H                    -1.0213    2.0366   -1.36493 
 H                    -1.9027    2.56968   0.97564 
 H                    -4.49075  -0.52208  -0.51838 
 H                    -3.64414  -2.0885   -0.4342 
 H                    -3.31687  -1.61638   1.97238 
 H                    -5.67418  -1.67816   2.69505 
 H                    -6.11257  -1.56892   1.0116 
 H                    -6.13193  -3.60006  -0.32969 
 H                    -5.83546  -6.04812  -0.4683 
 H                    -4.69047  -7.2737    1.35852 
 H                    -3.83994  -6.04145   3.33606 
 H                    -4.13136  -3.59299   3.4941 
 

 GradGradGradGradGradGradGradGradGradGradGradGradGradGradGradGradGradGrad
 Berny optimization.
 Initialization pass.
                           ----------------------------
                           !    Initial Parameters    !
                           ! (Angstroms and Degrees)  !
 --------------------------                            --------------------------
 ! Name  Definition              Value          Derivative Info.                !
 --------------------------------------------------------------------------------
 ! R1    R(1,2)                  1.5274         estimate D2E/DX2                !
 ! R2    R(1,6)                  1.5015         estimate D2E/DX2                !
 ! R3    R(1,21)                 1.0956         estimate D2E/DX2                !
 ! R4    R(1,22)                 1.0966         estimate D2E/DX2                !
 ! R5    R(2,3)                  1.4262         estimate D2E/DX2                !
 ! R6    R(2,23)                 1.0972         estimate D2E/DX2                !
 ! R7    R(2,24)                 1.0948         estimate D2E/DX2                !
 ! R8    R(3,4)                  1.4376         estimate D2E/DX2                !
 ! R9    R(4,5)                  1.5036         estimate D2E/DX2                !
 ! R10   R(4,25)                 1.0942         estimate D2E/DX2                !
 ! R11   R(4,26)                 1.0958         estimate D2E/DX2                !
 ! R12   R(5,6)                  1.3427         estimate D2E/DX2                !
 ! R13   R(5,10)                 1.5042         estimate D2E/DX2                !
 ! R14   R(6,7)                  1.3704         estimate D2E/DX2                !
 ! R15   R(7,8)                  1.3767         estimate D2E/DX2                !
 ! R16   R(7,27)                 1.013          estimate D2E/DX2                !
 ! R17   R(8,9)                  1.2928         estimate D2E/DX2                !
 ! R18   R(8,12)                 1.5341         estimate D2E/DX2                !
 ! R19   R(9,10)                 1.4658         estimate D2E/DX2                !
 ! R20   R(10,11)                1.4148         estimate D2E/DX2                !
 ! R21   R(10,28)                1.0962         estimate D2E/DX2                !
 ! R22   R(11,29)                0.9735         estimate D2E/DX2                !
 ! R23   R(12,13)                1.4666         estimate D2E/DX2                !
 ! R24   R(12,30)                1.0955         estimate D2E/DX2                !
 ! R25   R(12,31)                1.0951         estimate D2E/DX2                !
 ! R26   R(13,14)                1.4603         estimate D2E/DX2                !
 ! R27   R(13,32)                1.0171         estimate D2E/DX2                !
 ! R28   R(14,15)                1.5107         estimate D2E/DX2                !
 ! R29   R(14,33)                1.0972         estimate D2E/DX2                !
 ! R30   R(14,34)                1.0974         estimate D2E/DX2                !
 ! R31   R(15,16)                1.4019         estimate D2E/DX2                !
 ! R32   R(15,20)                1.4035         estimate D2E/DX2                !
 ! R33   R(16,17)                1.396          estimate D2E/DX2                !
 ! R34   R(16,35)                1.0878         estimate D2E/DX2                !
 ! R35   R(17,18)                1.3938         estimate D2E/DX2                !
 ! R36   R(17,36)                1.0871         estimate D2E/DX2                !
 ! R37   R(18,19)                1.3934         estimate D2E/DX2                !
 ! R38   R(18,37)                1.087          estimate D2E/DX2                !
 ! R39   R(19,20)                1.3955         estimate D2E/DX2                !
 ! R40   R(19,38)                1.087          estimate D2E/DX2                !
 ! R41   R(20,39)                1.0881         estimate D2E/DX2                !
 ! A1    A(2,1,6)              110.3015         estimate D2E/DX2                !
 ! A2    A(2,1,21)             109.3167         estimate D2E/DX2                !
 ! A3    A(2,1,22)             109.9014         estimate D2E/DX2                !
 ! A4    A(6,1,21)             110.9798         estimate D2E/DX2                !
 ! A5    A(6,1,22)             108.3029         estimate D2E/DX2                !
 ! A6    A(21,1,22)            107.999          estimate D2E/DX2                !
 ! A7    A(1,2,3)              109.8915         estimate D2E/DX2                !
 ! A8    A(1,2,23)             111.8193         estimate D2E/DX2                !
 ! A9    A(1,2,24)             109.819          estimate D2E/DX2                !
 ! A10   A(3,2,23)             109.6576         estimate D2E/DX2                !
 ! A11   A(3,2,24)             108.0049         estimate D2E/DX2                !
 ! A12   A(23,2,24)            107.5475         estimate D2E/DX2                !
 ! A13   A(2,3,4)              112.2221         estimate D2E/DX2                !
 ! A14   A(3,4,5)              112.8413         estimate D2E/DX2                !
 ! A15   A(3,4,25)             106.2858         estimate D2E/DX2                !
 ! A16   A(3,4,26)             108.4242         estimate D2E/DX2                !
 ! A17   A(5,4,25)             110.8964         estimate D2E/DX2                !
 ! A18   A(5,4,26)             110.2455         estimate D2E/DX2                !
 ! A19   A(25,4,26)            107.9469         estimate D2E/DX2                !
 ! A20   A(4,5,6)              122.138          estimate D2E/DX2                !
 ! A21   A(4,5,10)             117.3538         estimate D2E/DX2                !
 ! A22   A(6,5,10)             120.486          estimate D2E/DX2                !
 ! A23   A(1,6,5)              120.8802         estimate D2E/DX2                !
 ! A24   A(1,6,7)              120.265          estimate D2E/DX2                !
 ! A25   A(5,6,7)              118.8274         estimate D2E/DX2                !
 ! A26   A(6,7,8)              121.8511         estimate D2E/DX2                !
 ! A27   A(6,7,27)             118.0543         estimate D2E/DX2                !
 ! A28   A(8,7,27)             120.0221         estimate D2E/DX2                !
 ! A29   A(7,8,9)              124.6296         estimate D2E/DX2                !
 ! A30   A(7,8,12)             117.1373         estimate D2E/DX2                !
 ! A31   A(9,8,12)             118.2162         estimate D2E/DX2                !
 ! A32   A(8,9,10)             118.0208         estimate D2E/DX2                !
 ! A33   A(5,10,9)             116.1615         estimate D2E/DX2                !
 ! A34   A(5,10,11)            107.9819         estimate D2E/DX2                !
 ! A35   A(5,10,28)            107.9205         estimate D2E/DX2                !
 ! A36   A(9,10,11)            110.5232         estimate D2E/DX2                !
 ! A37   A(9,10,28)            107.0634         estimate D2E/DX2                !
 ! A38   A(11,10,28)           106.7765         estimate D2E/DX2                !
 ! A39   A(10,11,29)           101.4284         estimate D2E/DX2                !
 ! A40   A(8,12,13)            108.2536         estimate D2E/DX2                !
 ! A41   A(8,12,30)            108.8632         estimate D2E/DX2                !
 ! A42   A(8,12,31)            108.0592         estimate D2E/DX2                !
 ! A43   A(13,12,30)           110.7166         estimate D2E/DX2                !
 ! A44   A(13,12,31)           111.9428         estimate D2E/DX2                !
 ! A45   A(30,12,31)           108.9221         estimate D2E/DX2                !
 ! A46   A(12,13,14)           112.5661         estimate D2E/DX2                !
 ! A47   A(12,13,32)           110.4945         estimate D2E/DX2                !
 ! A48   A(14,13,32)           109.9673         estimate D2E/DX2                !
 ! A49   A(13,14,15)           112.9787         estimate D2E/DX2                !
 ! A50   A(13,14,33)           108.3411         estimate D2E/DX2                !
 ! A51   A(13,14,34)           110.9833         estimate D2E/DX2                !
 ! A52   A(15,14,33)           108.0254         estimate D2E/DX2                !
 ! A53   A(15,14,34)           110.962          estimate D2E/DX2                !
 ! A54   A(33,14,34)           105.168          estimate D2E/DX2                !
 ! A55   A(14,15,16)           120.7855         estimate D2E/DX2                !
 ! A56   A(14,15,20)           120.3157         estimate D2E/DX2                !
 ! A57   A(16,15,20)           118.8972         estimate D2E/DX2                !
 ! A58   A(15,16,17)           120.4623         estimate D2E/DX2                !
 ! A59   A(15,16,35)           120.335          estimate D2E/DX2                !
 ! A60   A(17,16,35)           119.2022         estimate D2E/DX2                !
 ! A61   A(16,17,18)           120.097          estimate D2E/DX2                !
 ! A62   A(16,17,36)           119.9691         estimate D2E/DX2                !
 ! A63   A(18,17,36)           119.9332         estimate D2E/DX2                !
 ! A64   A(17,18,19)           119.9857         estimate D2E/DX2                !
 ! A65   A(17,18,37)           120.0152         estimate D2E/DX2                !
 ! A66   A(19,18,37)           119.9981         estimate D2E/DX2                !
 ! A67   A(18,19,20)           120.0119         estimate D2E/DX2                !
 ! A68   A(18,19,38)           120.0031         estimate D2E/DX2                !
 ! A69   A(20,19,38)           119.9836         estimate D2E/DX2                !
 ! A70   A(15,20,19)           120.5458         estimate D2E/DX2                !
 ! A71   A(15,20,39)           120.1783         estimate D2E/DX2                !
 ! A72   A(19,20,39)           119.2728         estimate D2E/DX2                !
 ! D1    D(6,1,2,3)             50.4321         estimate D2E/DX2                !
 ! D2    D(6,1,2,23)           -71.5876         estimate D2E/DX2                !
 ! D3    D(6,1,2,24)           169.1049         estimate D2E/DX2                !
 ! D4    D(21,1,2,3)           172.7217         estimate D2E/DX2                !
 ! D5    D(21,1,2,23)           50.702          estimate D2E/DX2                !
 ! D6    D(21,1,2,24)          -68.6055         estimate D2E/DX2                !
 ! D7    D(22,1,2,3)           -68.9107         estimate D2E/DX2                !
 ! D8    D(22,1,2,23)          169.0696         estimate D2E/DX2                !
 ! D9    D(22,1,2,24)           49.762          estimate D2E/DX2                !
 ! D10   D(2,1,6,5)            -17.6894         estimate D2E/DX2                !
 ! D11   D(2,1,6,7)            160.3836         estimate D2E/DX2                !
 ! D12   D(21,1,6,5)          -138.9947         estimate D2E/DX2                !
 ! D13   D(21,1,6,7)            39.0783         estimate D2E/DX2                !
 ! D14   D(22,1,6,5)           102.6191         estimate D2E/DX2                !
 ! D15   D(22,1,6,7)           -79.3079         estimate D2E/DX2                !
 ! D16   D(1,2,3,4)            -66.1887         estimate D2E/DX2                !
 ! D17   D(23,2,3,4)            57.108          estimate D2E/DX2                !
 ! D18   D(24,2,3,4)           174.0277         estimate D2E/DX2                !
 ! D19   D(2,3,4,5)             45.0722         estimate D2E/DX2                !
 ! D20   D(2,3,4,25)           166.8256         estimate D2E/DX2                !
 ! D21   D(2,3,4,26)           -77.3457         estimate D2E/DX2                !
 ! D22   D(3,4,5,6)            -10.8303         estimate D2E/DX2                !
 ! D23   D(3,4,5,10)           170.8767         estimate D2E/DX2                !
 ! D24   D(25,4,5,6)          -129.9429         estimate D2E/DX2                !
 ! D25   D(25,4,5,10)           51.7641         estimate D2E/DX2                !
 ! D26   D(26,4,5,6)           110.561          estimate D2E/DX2                !
 ! D27   D(26,4,5,10)          -67.732          estimate D2E/DX2                !
 ! D28   D(4,5,6,1)             -1.7032         estimate D2E/DX2                !
 ! D29   D(4,5,6,7)           -179.8035         estimate D2E/DX2                !
 ! D30   D(10,5,6,1)           176.5374         estimate D2E/DX2                !
 ! D31   D(10,5,6,7)            -1.5628         estimate D2E/DX2                !
 ! D32   D(4,5,10,9)          -179.9621         estimate D2E/DX2                !
 ! D33   D(4,5,10,11)          -55.205          estimate D2E/DX2                !
 ! D34   D(4,5,10,28)           59.8759         estimate D2E/DX2                !
 ! D35   D(6,5,10,9)             1.7152         estimate D2E/DX2                !
 ! D36   D(6,5,10,11)          126.4723         estimate D2E/DX2                !
 ! D37   D(6,5,10,28)         -118.4468         estimate D2E/DX2                !
 ! D38   D(1,6,7,8)           -177.7283         estimate D2E/DX2                !
 ! D39   D(1,6,7,27)             5.3688         estimate D2E/DX2                !
 ! D40   D(5,6,7,8)              0.384          estimate D2E/DX2                !
 ! D41   D(5,6,7,27)          -176.5189         estimate D2E/DX2                !
 ! D42   D(6,7,8,9)              0.7321         estimate D2E/DX2                !
 ! D43   D(6,7,8,12)          -177.7447         estimate D2E/DX2                !
 ! D44   D(27,7,8,9)           177.5753         estimate D2E/DX2                !
 ! D45   D(27,7,8,12)           -0.9014         estimate D2E/DX2                !
 ! D46   D(7,8,9,10)            -0.506          estimate D2E/DX2                !
 ! D47   D(12,8,9,10)          177.9557         estimate D2E/DX2                !
 ! D48   D(7,8,12,13)           84.4139         estimate D2E/DX2                !
 ! D49   D(7,8,12,30)         -155.1673         estimate D2E/DX2                !
 ! D50   D(7,8,12,31)          -37.0131         estimate D2E/DX2                !
 ! D51   D(9,8,12,13)          -94.1637         estimate D2E/DX2                !
 ! D52   D(9,8,12,30)           26.2551         estimate D2E/DX2                !
 ! D53   D(9,8,12,31)          144.4093         estimate D2E/DX2                !
 ! D54   D(8,9,10,5)            -0.6585         estimate D2E/DX2                !
 ! D55   D(8,9,10,11)         -124.1045         estimate D2E/DX2                !
 ! D56   D(8,9,10,28)          119.964          estimate D2E/DX2                !
 ! D57   D(5,10,11,29)        -129.8319         estimate D2E/DX2                !
 ! D58   D(9,10,11,29)          -1.7737         estimate D2E/DX2                !
 ! D59   D(28,10,11,29)        114.3365         estimate D2E/DX2                !
 ! D60   D(8,12,13,14)        -176.7724         estimate D2E/DX2                !
 ! D61   D(8,12,13,32)         -53.3978         estimate D2E/DX2                !
 ! D62   D(30,12,13,14)         63.9716         estimate D2E/DX2                !
 ! D63   D(30,12,13,32)       -172.6538         estimate D2E/DX2                !
 ! D64   D(31,12,13,14)        -57.7735         estimate D2E/DX2                !
 ! D65   D(31,12,13,32)         65.6011         estimate D2E/DX2                !
 ! D66   D(12,13,14,15)         77.9773         estimate D2E/DX2                !
 ! D67   D(12,13,14,33)       -162.3746         estimate D2E/DX2                !
 ! D68   D(12,13,14,34)        -47.3898         estimate D2E/DX2                !
 ! D69   D(32,13,14,15)        -45.6907         estimate D2E/DX2                !
 ! D70   D(32,13,14,33)         73.9575         estimate D2E/DX2                !
 ! D71   D(32,13,14,34)       -171.0578         estimate D2E/DX2                !
 ! D72   D(13,14,15,16)       -105.6726         estimate D2E/DX2                !
 ! D73   D(13,14,15,20)         73.8632         estimate D2E/DX2                !
 ! D74   D(33,14,15,16)        134.4978         estimate D2E/DX2                !
 ! D75   D(33,14,15,20)        -45.9665         estimate D2E/DX2                !
 ! D76   D(34,14,15,16)         19.706          estimate D2E/DX2                !
 ! D77   D(34,14,15,20)       -160.7583         estimate D2E/DX2                !
 ! D78   D(14,15,16,17)        179.6775         estimate D2E/DX2                !
 ! D79   D(14,15,16,35)         -0.5861         estimate D2E/DX2                !
 ! D80   D(20,15,16,17)          0.1353         estimate D2E/DX2                !
 ! D81   D(20,15,16,35)        179.8717         estimate D2E/DX2                !
 ! D82   D(14,15,20,19)       -179.6794         estimate D2E/DX2                !
 ! D83   D(14,15,20,39)          0.9593         estimate D2E/DX2                !
 ! D84   D(16,15,20,19)         -0.135          estimate D2E/DX2                !
 ! D85   D(16,15,20,39)       -179.4962         estimate D2E/DX2                !
 ! D86   D(15,16,17,18)         -0.0717         estimate D2E/DX2                !
 ! D87   D(15,16,17,36)        179.6118         estimate D2E/DX2                !
 ! D88   D(35,16,17,18)       -179.8111         estimate D2E/DX2                !
 ! D89   D(35,16,17,36)         -0.1276         estimate D2E/DX2                !
 ! D90   D(16,17,18,19)          0.0053         estimate D2E/DX2                !
 ! D91   D(16,17,18,37)        179.6384         estimate D2E/DX2                !
 ! D92   D(36,17,18,19)       -179.6783         estimate D2E/DX2                !
 ! D93   D(36,17,18,37)         -0.0452         estimate D2E/DX2                !
 ! D94   D(17,18,19,20)         -0.0049         estimate D2E/DX2                !
 ! D95   D(17,18,19,38)        179.5733         estimate D2E/DX2                !
 ! D96   D(37,18,19,20)       -179.638          estimate D2E/DX2                !
 ! D97   D(37,18,19,38)         -0.0599         estimate D2E/DX2                !
 ! D98   D(18,19,20,15)          0.0708         estimate D2E/DX2                !
 ! D99   D(18,19,20,39)        179.4378         estimate D2E/DX2                !
 ! D100  D(38,19,20,15)       -179.5075         estimate D2E/DX2                !
 ! D101  D(38,19,20,39)         -0.1405         estimate D2E/DX2                !
 --------------------------------------------------------------------------------
 Trust Radius=3.00D-01 FncErr=1.00D-07 GrdErr=1.00D-06 EigMax=2.50D+02 EigMin=1.00D-04
 Number of steps in this run=    224 maximum allowed number of steps=    234.
 GradGradGradGradGradGradGradGradGradGradGradGradGradGradGradGradGradGrad

                          Input orientation:                          
 ---------------------------------------------------------------------
 Center     Atomic      Atomic             Coordinates (Angstroms)
 Number     Number       Type             X           Y           Z
 ---------------------------------------------------------------------
      1          6           0        1.216000   -1.504000    0.089000
      2          6           0        2.445450   -0.786240   -0.464410
      3          8           0        2.556190    0.508980    0.122210
      4          6           0        1.477280    1.375910   -0.266430
      5          6           0        0.134030    0.704030   -0.195160
      6          6           0        0.006510   -0.620310   -0.014050
      7          7           0       -1.251170   -1.162250    0.036470
      8          6           0       -2.381650   -0.388650   -0.100820
      9          7           0       -2.378020    0.888800   -0.299600
     10          6           0       -1.082480    1.570330   -0.374770
     11          8           0       -1.017040    2.617410    0.574430
     12          6           0       -3.735420   -1.099100    0.026280
     13          7           0       -4.076430   -1.186580    1.450030
     14          6           0       -5.318920   -1.916970    1.684810
     15          6           0       -5.149080   -3.415130    1.590990
     16          6           0       -5.624560   -4.122870    0.478170
     17          6           0       -5.458020   -5.506470    0.395350
     18          6           0       -4.814210   -6.195640    1.421630
     19          6           0       -4.335930   -5.503340    2.532280
     20          6           0       -4.501340   -4.120300    2.617110
     21          1           0        1.065540   -2.440360   -0.459480
     22          1           0        1.372510   -1.751680    1.145730
     23          1           0        2.406670   -0.694460   -1.557060
     24          1           0        3.349270   -1.350240   -0.212430
     25          1           0        1.518700    2.237880    0.406320
     26          1           0        1.669260    1.732700   -1.284580
     27          1           0       -1.335470   -2.153590    0.227070
     28          1           0       -1.021300    2.036600   -1.364930
     29          1           0       -1.902700    2.569680    0.975640
     30          1           0       -4.490750   -0.522080   -0.518380
     31          1           0       -3.644140   -2.088500   -0.434200
     32          1           0       -3.316870   -1.616380    1.972380
     33          1           0       -5.674180   -1.678160    2.695050
     34          1           0       -6.112570   -1.568920    1.011600
     35          1           0       -6.131930   -3.600060   -0.329690
     36          1           0       -5.835460   -6.048120   -0.468300
     37          1           0       -4.690470   -7.273700    1.358520
     38          1           0       -3.839940   -6.041450    3.336060
     39          1           0       -4.131360   -3.592990    3.494100
 ---------------------------------------------------------------------
                    Distance matrix (angstroms):
                    1          2          3          4          5
     1  C    0.000000
     2  C    1.527413   0.000000
     3  O    2.418533   1.426177   0.000000
     4  C    2.913499   2.377276   1.437587   0.000000
     5  C    2.475238   2.763343   2.450638   1.503603   0.000000
     6  C    1.501464   2.485716   2.791905   2.492339   1.342735
     7  N    2.491281   3.749302   4.158888   3.738776   2.335687
     8  C    3.771356   4.857074   5.023718   4.246462   2.744357
     9  N    4.335145   5.108697   4.966751   3.886092   2.521000
    10  C    3.866471   4.243554   3.822744   2.569418   1.504205
    11  O    4.712550   4.965165   4.173482   2.910326   2.361833
    12  C    4.968344   6.208205   6.494573   5.777854   4.274688
    13  N    5.473844   6.808838   6.973498   6.352660   4.899901
    14  C    6.739609   8.135302   8.387151   7.799919   6.335502
    15  C    6.813416   8.295337   8.770812   8.385268   6.933186
    16  C    7.335066   8.783315   9.407732   9.012610   7.544117
    17  C    7.788206   9.245788  10.024361   9.793033   8.377949
    18  C    7.755696   9.247779  10.048045   9.988031   8.643179
    19  C    7.265553   8.787394   9.458211   9.431345   8.121017
    20  C    6.776750   8.298772   8.801335   8.617832   7.257388
    21  H    1.095554   2.154133   3.355444   3.843269   3.290101
    22  H    1.096594   2.162366   2.749414   3.433219   3.059793
    23  H    2.186907   1.097183   2.071370   2.610732   2.995904
    24  H    2.159941   1.094751   2.048819   3.307440   3.815507
    25  H    3.767491   3.280600   2.036222   1.094212   2.152158
    26  H    3.545193   2.760473   2.064750   1.095803   2.145211
    27  H    2.636481   4.079601   4.716492   4.540096   3.240941
    28  H    4.433427   4.560451   4.164570   2.808223   2.116339
    29  H    5.206466   5.678235   4.985632   3.793691   2.999949
    30  H    5.822377   6.941438   7.150720   6.267633   4.795457
    31  H    4.923042   6.227351   6.745412   6.185404   4.704246
    32  H    4.909853   6.311213   6.514071   6.078647   4.689482
    33  H    7.368610   8.758202   8.896183   8.321123   6.911110
    34  H    7.386700   8.719570   8.958576   8.240826   6.755929
    35  H    7.652506   9.028133   9.621427   9.091994   7.602996
    36  H    8.407300   9.811262  10.666023  10.422722   9.016704
    37  H    8.353892   9.814865  10.705730  10.746970   9.451661
    38  H    7.529567   9.031441   9.702961   9.811625   8.588565
    39  H    6.674792   8.173254   8.539270   8.383817   7.090033
                    6          7          8          9         10
     6  C    0.000000
     7  N    1.370405   0.000000
     8  C    2.400938   1.376696   0.000000
     9  N    2.836359   2.364221   1.292828   0.000000
    10  C    2.472837   2.768496   2.366536   1.465796   0.000000
    11  O    3.446272   3.824925   3.369647   2.367338   1.414793
    12  C    3.772652   2.485073   1.534140   2.429090   3.784810
    13  N    4.374310   3.159246   2.431894   3.202031   4.460290
    14  C    5.738263   4.453450   3.761887   4.523176   5.860935
    15  C    6.080072   4.762951   4.436268   5.456823   6.727277
    16  C    6.649749   5.299708   4.979568   6.021776   7.332839
    17  C    7.341884   6.057939   5.991854   7.132239   8.355808
    18  C    7.508983   6.320517   6.477371   7.686803   8.801315
    19  C    7.013171   5.881316   6.075564   7.260331   8.310998
    20  C    6.284397   5.096407   5.079906   6.173068   7.281704
    21  H    2.152332   2.691965   4.027564   4.792387   4.550473
    22  H    2.119208   2.908880   4.183952   4.809115   4.401664
    23  H    2.854321   4.017208   5.014196   5.194341   4.324494
    24  H    3.427273   4.611002   5.812104   6.150020   5.310037
    25  H    3.260779   4.401120   4.729543   4.183631   2.796759
    26  H    3.148911   4.319123   4.723482   4.250039   2.902790
    27  H    2.051828   1.013010   2.077743   3.258900   3.780714
    28  H    3.152846   3.499915   3.054564   2.071971   1.096160
    29  H    3.847155   3.903054   3.184317   2.162758   1.869510
    30  H    4.526516   3.348515   2.154173   2.549917   4.001888
    31  H    3.957190   2.608788   2.143482   3.238131   4.466841
    32  H    3.997864   2.867246   2.584592   3.509880   4.544968
    33  H    6.381889   5.186254   4.507824   5.140222   6.407823
    34  H    6.276540   4.974884   4.068203   4.659023   6.089230
    35  H    6.830738   5.467980   4.942685   5.851719   7.227165
    36  H    7.987245   6.718797   6.640290   7.752626   8.979997
    37  H    8.259126   7.136275   7.407040   8.644258   9.707665
    38  H    7.443599   6.433943   6.774430   7.961382   8.905787
    39  H    6.185945   5.114606   5.123742   6.128034   7.136084
                   11         12         13         14         15
    11  O    0.000000
    12  C    4.637079   0.000000
    13  N    4.959524   1.466630   0.000000
    14  C    6.348206   2.434565   1.460265   0.000000
    15  C    7.382323   3.132211   2.477273   1.510672   0.000000
    16  C    8.165163   3.593917   3.458760   2.532862   1.401908
    17  C    9.260227   4.746417   4.656457   3.816617   2.428724
    18  C    9.633592   5.393098   5.063182   4.316366   2.805719
    19  C    8.988592   5.102742   4.457917   3.813991   2.430609
    20  C    7.855547   4.052984   3.185802   2.528297   1.403479
    21  H    5.566610   5.008409   5.626549   6.755238   6.616351
    22  H    5.012512   5.269723   5.486609   6.715144   6.745106
    23  H    5.218575   6.355782   7.163474   8.466935   8.625637
    24  H    5.951979   7.093158   7.611280   8.891469   8.929616
    25  H    2.569490   6.235835   6.642419   8.102491   8.821522
    26  H    3.384500   6.240834   7.000946   8.424490   9.014367
    27  H    4.794215   2.629073   3.153348   4.248396   4.242096
    28  H    2.024469   4.374303   5.258014   6.587956   7.449657
    29  H    0.973469   4.209524   4.365734   5.683618   6.836343
    30  H    4.808045   1.095504   2.118457   2.735988   3.640409
    31  H    5.483118   1.095119   2.133227   2.706384   2.850647
    32  H    5.016818   2.056713   1.017108   2.044812   2.595757
    33  H    6.681160   3.349095   2.084354   1.097189   2.124086
    34  H    6.609153   2.615804   2.117610   1.097375   2.161596
    35  H    8.101634   3.482065   3.635570   2.748088   2.165457
    36  H    9.969748   5.398850   5.514413   4.687120   3.412393
    37  H   10.580309   6.388479   6.118697   5.403330   3.892676
    38  H    9.516891   5.949150   5.213713   4.682451   3.414187
    39  H    7.536082   4.289759   3.157855   2.737311   2.165460
                   16         17         18         19         20
    16  C    0.000000
    17  C    1.396046   0.000000
    18  C    2.417263   1.393807   0.000000
    19  C    2.790275   2.413621   1.393404   0.000000
    20  C    2.415925   2.787996   2.415387   1.395477   0.000000
    21  H    6.961858   7.258691   7.225798   6.892630   6.578583
    22  H    7.418030   7.830559   7.622362   6.970205   6.502110
    23  H    8.966427   9.424473   9.553883   9.236378   8.768163
    24  H    9.417751   9.757664   9.632780   9.156635   8.792702
    25  H    9.565065  10.423517  10.595323   9.935939   9.030777
    26  H    9.518130  10.296886  10.593278  10.148448   9.357195
    27  H    4.726247   5.316535   5.465050   5.053472   4.427524
    28  H    7.907344   8.926420   9.482661   9.111845   8.116325
    29  H    7.673978   8.843146   9.246980   8.574228   7.362281
    30  H    3.904398   5.158940   6.004794   5.843239   4.772693
    31  H    2.982137   3.957377   4.656369   4.575993   3.764770
    32  H    3.720294   4.712149   4.849224   4.057145   2.843987
    33  H    3.300549   4.471163   4.771663   4.055787   2.710291
    34  H    2.654310   4.038874   4.822904   4.576962   3.418079
    35  H    1.087838   2.148077   3.397138   3.878010   3.407800
    36  H    2.155660   1.087077   2.153265   3.398361   3.875064
    37  H    3.402245   2.154050   1.086972   2.153505   3.400552
    38  H    3.877287   3.398847   2.153606   1.087028   2.155262
    39  H    3.406795   3.876040   3.396351   2.148577   1.088142
                   21         22         23         24         25
    21  H    0.000000
    22  H    1.773474   0.000000
    23  H    2.459975   3.080954   0.000000
    24  H    2.542601   2.431735   1.768212   0.000000
    25  H    4.779215   4.060134   3.638952   4.075346   0.000000
    26  H    4.296475   4.258564   2.551299   3.671030   1.771163
    27  H    2.513650   2.887667   4.394973   4.773397   5.240556
    28  H    5.021744   5.136614   4.387093   5.648081   3.103134
    29  H    5.997543   5.424950   5.969912   6.660366   3.484278
    30  H    5.878403   6.217636   6.977319   7.889573   6.677270
    31  H    4.722873   5.270332   6.310029   7.035765   6.788148
    32  H    5.079213   4.763606   6.787179   7.020089   6.378919
    33  H    7.480363   7.215375   9.184130   9.485970   8.503598
    34  H    7.378939   7.488512   8.940925   9.543191   8.549525
    35  H    7.291456   7.868290   9.102562   9.745183   9.651704
    36  H    7.787157   8.545134   9.888366  10.319632  11.113344
    37  H    7.732913   8.203518  10.107245  10.109040  11.398712
    38  H    7.172009   7.097134   9.568336   9.288917  10.288134
    39  H    6.630771   6.260819   8.755657   8.644543   8.686576
                   26         27         28         29         30
    26  H    0.000000
    27  H    5.139722   0.000000
    28  H    2.708860   4.493424   0.000000
    29  H    4.309063   4.815744   2.557207   0.000000
    30  H    6.604303   3.629506   4.393242   4.299893   0.000000
    31  H    6.599768   2.402389   4.976143   5.169033   1.782556
    32  H    6.832687   2.694559   5.454497   4.529511   2.963001
    33  H    9.022058   5.014116   7.206398   5.935030   3.614299
    34  H    8.759567   4.876270   6.675979   5.903584   2.463131
    35  H    9.497827   5.040663   7.678685   7.593152   3.493284
    36  H   10.841047   5.991729   9.452131   9.582173   5.687519
    37  H   11.337874   6.225089  10.371194  10.237694   7.010493
    38  H   10.589571   5.572580   9.762117   9.136522   6.763409
    39  H    9.211186   4.534574   8.060703   7.020546   5.065535
                   31         32         33         34         35
    31  H    0.000000
    32  H    2.474193   0.000000
    33  H    3.752552   2.466370   0.000000
    34  H    2.907481   2.956567   1.743021   0.000000
    35  H    2.912874   4.142351   3.612795   2.434125   0.000000
    36  H    4.525664   5.651596   5.397161   4.725476   2.469839
    37  H    5.585244   5.853962   5.836443   5.889587   4.292259
    38  H    5.466170   4.659879   4.776362   5.529149   4.965010
    39  H    4.234668   2.624121   2.585604   3.766279   4.315519
                   36         37         38         39
    36  H    0.000000
    37  H    2.479984   0.000000
    38  H    4.295963   2.480425   0.000000
    39  H    4.963087   4.291961   2.470801   0.000000
 Stoichiometry    C15H19N3O2
 Framework group  C1[X(C15H19N3O2)]
 Deg. of freedom   111
 Full point group                 C1      NOp   1
 Largest Abelian subgroup         C1      NOp   1
 Largest concise Abelian subgroup C1      NOp   1
                         Standard orientation:                         
 ---------------------------------------------------------------------
 Center     Atomic      Atomic             Coordinates (Angstroms)
 Number     Number       Type             X           Y           Z
 ---------------------------------------------------------------------
      1          6           0       -2.482469    2.232619    0.001254
      2          6           0       -3.962902    2.496487   -0.266481
      3          8           0       -4.762495    1.604514    0.507480
      4          6           0       -4.601957    0.235894    0.097892
      5          6           0       -3.163072   -0.144304   -0.116302
      6          6           0       -2.179457    0.769286   -0.144469
      7          7           0       -0.891613    0.347600   -0.348551
      8          6           0       -0.582811   -0.981369   -0.532324
      9          7           0       -1.448259   -1.941698   -0.545531
     10          6           0       -2.858915   -1.600278   -0.340496
     11          8           0       -3.392967   -2.330568    0.747210
     12          6           0        0.899813   -1.338738   -0.698757
     13          7           0        1.491447   -1.477914    0.636010
     14          6           0        2.926202   -1.745378    0.587904
     15          6           0        3.747539   -0.508887    0.307499
     16          6           0        4.333078   -0.306376   -0.950070
     17          6           0        5.085219    0.842008   -1.203923
     18          6           0        5.258336    1.799011   -0.205488
     19          6           0        4.680247    1.609919    1.048159
     20          6           0        3.928032    0.462730    1.304061
     21          1           0       -1.877204    2.829266   -0.690053
     22          1           0       -2.228006    2.536849    1.023610
     23          1           0       -4.210976    2.386562   -1.329583
     24          1           0       -4.216588    3.520052    0.027524
     25          1           0       -5.054036   -0.375033    0.885098
     26          1           0       -5.176343    0.080100   -0.822213
     27          1           0       -0.152604    1.039605   -0.314146
     28          1           0       -3.401705   -1.924228   -1.236042
     29          1           0       -2.628430   -2.873283    1.009097
     30          1           0        0.977200   -2.278254   -1.256836
     31          1           0        1.378300   -0.541532   -1.277376
     32          1           0        1.311626   -0.646548    1.193688
     33          1           0        3.235760   -2.144960    1.561728
     34          1           0        3.153833   -2.539924   -0.133977
     35          1           0        4.209919   -1.045293   -1.738883
     36          1           0        5.540960    0.987891   -2.180015
     37          1           0        5.849112    2.689844   -0.402738
     38          1           0        4.820855    2.352769    1.829206
     39          1           0        3.489696    0.322889    2.290144
 ---------------------------------------------------------------------
 Rotational constants (GHZ):           0.6694382           0.1483752           0.1299146
 Standard basis: 6-31G(d) (6D, 7F)
 There are   338 symmetry adapted cartesian basis functions of A   symmetry.
 There are   338 symmetry adapted basis functions of A   symmetry.
   338 basis functions,   636 primitive gaussians,   338 cartesian basis functions
    73 alpha electrons       73 beta electrons
       nuclear repulsion energy      1500.2601140676 Hartrees.
 NAtoms=   39 NActive=   39 NUniq=   39 SFac= 1.00D+00 NAtFMM=   60 NAOKFM=F Big=F
 Integral buffers will be    131072 words long.
 Raffenetti 2 integral format.
 Two-electron integral symmetry is turned on.
 Nuclear repulsion after empirical dispersion term =     1500.1823576987 Hartrees.
 One-electron integrals computed using PRISM.
 NBasis=   338 RedAO= T EigKep=  4.74D-04  NBF=   338
 NBsUse=   338 1.00D-06 EigRej= -1.00D+00 NBFU=   338
 ExpMin= 1.61D-01 ExpMax= 5.48D+03 ExpMxC= 8.25D+02 IAcc=3 IRadAn=         5 AccDes= 0.00D+00
 Harris functional with IExCor=  402 and IRadAn=       5 diagonalized for initial guess.
 HarFok:  IExCor=  402 AccDes= 0.00D+00 IRadAn=         5 IDoV= 1 UseB2=F ITyADJ=14
 ICtDFT=  3500011 ScaDFX=  1.000000  1.000000  1.000000  1.000000
 FoFCou: FMM=F IPFlag=           0 FMFlag=      100000 FMFlg1=           0
         NFxFlg=           0 DoJE=T BraDBF=F KetDBF=T FulRan=T
         wScrn=  0.000000 ICntrl=       500 IOpCl=  0 I1Cent=   200000004 NGrid=           0
         NMat0=    1 NMatS0=      1 NMatT0=    0 NMatD0=    1 NMtDS0=    0 NMtDT0=    0
 Petite list used in FoFCou.
 Requested convergence on RMS density matrix=1.00D-08 within  32 cycles.
 Requested convergence on MAX density matrix=1.00D-06.
 Requested convergence on             energy=1.00D-06.
 No special actions if energy rises.
 Integral accuracy reduced to 1.0D-05 until final iterations.
 Initial convergence to 1.0D-05 achieved.  Increase integral accuracy.
 SCF Done:  E(RB3LYP) =  -897.758757874     A.U. after   14 cycles
            NFock= 14  Conv=0.54D-08     -V/T= 2.0093
 QCSCF skips out because SCF is already converged.

 **********************************************************************

            Population analysis using the SCF density.

 **********************************************************************

 Orbital symmetries:
       Occupied  (A) (A) (A) (A) (A) (A) (A) (A) (A) (A) (A) (A)
                 (A) (A) (A) (A) (A) (A) (A) (A) (A) (A) (A) (A)
                 (A) (A) (A) (A) (A) (A) (A) (A) (A) (A) (A) (A)
                 (A) (A) (A) (A) (A) (A) (A) (A) (A) (A) (A) (A)
                 (A) (A) (A) (A) (A) (A) (A) (A) (A) (A) (A) (A)
                 (A) (A) (A) (A) (A) (A) (A) (A) (A) (A) (A) (A)
                 (A)
       Virtual   (A) (A) (A) (A) (A) (A) (A) (A) (A) (A) (A) (A)
                 (A) (A) (A) (A) (A) (A) (A) (A) (A) (A) (A) (A)
                 (A) (A) (A) (A) (A) (A) (A) (A) (A) (A) (A) (A)
                 (A) (A) (A) (A) (A) (A) (A) (A) (A) (A) (A) (A)
                 (A) (A) (A) (A) (A) (A) (A) (A) (A) (A) (A) (A)
                 (A) (A) (A) (A) (A) (A) (A) (A) (A) (A) (A) (A)
                 (A) (A) (A) (A) (A) (A) (A) (A) (A) (A) (A) (A)
                 (A) (A) (A) (A) (A) (A) (A) (A) (A) (A) (A) (A)
                 (A) (A) (A) (A) (A) (A) (A) (A) (A) (A) (A) (A)
                 (A) (A) (A) (A) (A) (A) (A) (A) (A) (A) (A) (A)
                 (A) (A) (A) (A) (A) (A) (A) (A) (A) (A) (A) (A)
                 (A) (A) (A) (A) (A) (A) (A) (A) (A) (A) (A) (A)
                 (A) (A) (A) (A) (A) (A) (A) (A) (A) (A) (A) (A)
                 (A) (A) (A) (A) (A) (A) (A) (A) (A) (A) (A) (A)
                 (A) (A) (A) (A) (A) (A) (A) (A) (A) (A) (A) (A)
                 (A) (A) (A) (A) (A) (A) (A) (A) (A) (A) (A) (A)
                 (A) (A) (A) (A) (A) (A) (A) (A) (A) (A) (A) (A)
                 (A) (A) (A) (A) (A) (A) (A) (A) (A) (A) (A) (A)
                 (A) (A) (A) (A) (A) (A) (A) (A) (A) (A) (A) (A)
                 (A) (A) (A) (A) (A) (A) (A) (A) (A) (A) (A) (A)
                 (A) (A) (A) (A) (A) (A) (A) (A) (A) (A) (A) (A)
                 (A) (A) (A) (A) (A) (A) (A) (A) (A) (A) (A) (A)
                 (A)
 The electronic state is 1-A.
 Alpha  occ. eigenvalues --  -19.14083 -19.12196 -14.38115 -14.32929 -14.30837
 Alpha  occ. eigenvalues --  -10.26684 -10.24684 -10.23505 -10.22574 -10.22469
 Alpha  occ. eigenvalues --  -10.22345 -10.21778 -10.20144 -10.20120 -10.19929
 Alpha  occ. eigenvalues --  -10.19849 -10.19818 -10.19701 -10.19672 -10.17326
 Alpha  occ. eigenvalues --   -1.02337  -1.01456  -0.98476  -0.91748  -0.87624
 Alpha  occ. eigenvalues --   -0.85847  -0.80523  -0.77245  -0.76715  -0.75258
 Alpha  occ. eigenvalues --   -0.71919  -0.67135  -0.66337  -0.65025  -0.63376
 Alpha  occ. eigenvalues --   -0.61239  -0.59126  -0.58355  -0.54995  -0.53335
 Alpha  occ. eigenvalues --   -0.52435  -0.50253  -0.48670  -0.47342  -0.47148
 Alpha  occ. eigenvalues --   -0.46786  -0.46456  -0.45600  -0.44834  -0.43083
 Alpha  occ. eigenvalues --   -0.43050  -0.42684  -0.42163  -0.40824  -0.40408
 Alpha  occ. eigenvalues --   -0.40034  -0.39113  -0.38023  -0.37690  -0.36397
 Alpha  occ. eigenvalues --   -0.36156  -0.35477  -0.34765  -0.33996  -0.31019
 Alpha  occ. eigenvalues --   -0.28087  -0.26643  -0.25950  -0.25623  -0.25109
 Alpha  occ. eigenvalues --   -0.23801  -0.22536  -0.19961
 Alpha virt. eigenvalues --   -0.01385  -0.00974   0.00057   0.05281   0.06018
 Alpha virt. eigenvalues --    0.08324   0.09837   0.10401   0.11133   0.11565
 Alpha virt. eigenvalues --    0.12829   0.13500   0.13989   0.14540   0.14696
 Alpha virt. eigenvalues --    0.15033   0.15219   0.15913   0.16228   0.17222
 Alpha virt. eigenvalues --    0.17348   0.18264   0.18372   0.18670   0.19212
 Alpha virt. eigenvalues --    0.20913   0.21846   0.23216   0.23857   0.23997
 Alpha virt. eigenvalues --    0.25320   0.25875   0.27322   0.28894   0.29500
 Alpha virt. eigenvalues --    0.29871   0.30889   0.31292   0.32853   0.33314
 Alpha virt. eigenvalues --    0.34310   0.37590   0.41643   0.45570   0.47234
 Alpha virt. eigenvalues --    0.51035   0.51813   0.52108   0.52611   0.53021
 Alpha virt. eigenvalues --    0.53704   0.53735   0.54785   0.55060   0.55474
 Alpha virt. eigenvalues --    0.56146   0.56541   0.57736   0.58570   0.58680
 Alpha virt. eigenvalues --    0.58845   0.59529   0.60140   0.60397   0.60679
 Alpha virt. eigenvalues --    0.61906   0.62953   0.63352   0.64308   0.64574
 Alpha virt. eigenvalues --    0.65562   0.66294   0.68111   0.68412   0.70161
 Alpha virt. eigenvalues --    0.71462   0.72587   0.73799   0.74645   0.75735
 Alpha virt. eigenvalues --    0.77343   0.78884   0.80384   0.80632   0.81554
 Alpha virt. eigenvalues --    0.82277   0.82490   0.83092   0.83135   0.83553
 Alpha virt. eigenvalues --    0.83717   0.84567   0.85334   0.85552   0.85707
 Alpha virt. eigenvalues --    0.87264   0.87688   0.87998   0.88709   0.90574
 Alpha virt. eigenvalues --    0.90726   0.91622   0.92437   0.92782   0.93510
 Alpha virt. eigenvalues --    0.94434   0.94563   0.95274   0.97711   0.98721
 Alpha virt. eigenvalues --    0.99146   0.99942   1.01409   1.03990   1.04957
 Alpha virt. eigenvalues --    1.05913   1.07271   1.09837   1.11230   1.12092
 Alpha virt. eigenvalues --    1.13056   1.14251   1.16085   1.16959   1.18532
 Alpha virt. eigenvalues --    1.19793   1.20597   1.22073   1.24847   1.25496
 Alpha virt. eigenvalues --    1.26580   1.28893   1.32004   1.32674   1.35210
 Alpha virt. eigenvalues --    1.40718   1.41162   1.41948   1.42840   1.44877
 Alpha virt. eigenvalues --    1.45552   1.47394   1.48806   1.49180   1.49925
 Alpha virt. eigenvalues --    1.50170   1.50519   1.53882   1.54877   1.55876
 Alpha virt. eigenvalues --    1.59404   1.60238   1.63882   1.66980   1.67528
 Alpha virt. eigenvalues --    1.68578   1.71357   1.72836   1.74120   1.76158
 Alpha virt. eigenvalues --    1.78937   1.79649   1.80588   1.82351   1.82661
 Alpha virt. eigenvalues --    1.84948   1.86108   1.86510   1.88432   1.89403
 Alpha virt. eigenvalues --    1.90714   1.90962   1.91485   1.92924   1.94511
 Alpha virt. eigenvalues --    1.96588   1.96772   1.97412   1.99112   2.00689
 Alpha virt. eigenvalues --    2.01507   2.03803   2.03980   2.05145   2.07011
 Alpha virt. eigenvalues --    2.08051   2.09884   2.12045   2.12461   2.13437
 Alpha virt. eigenvalues --    2.13956   2.14859   2.15568   2.18689   2.19698
 Alpha virt. eigenvalues --    2.20733   2.23170   2.24229   2.25272   2.26007
 Alpha virt. eigenvalues --    2.27536   2.28854   2.29925   2.31415   2.32738
 Alpha virt. eigenvalues --    2.32989   2.34988   2.36775   2.38238   2.40020
 Alpha virt. eigenvalues --    2.42179   2.43941   2.45505   2.47354   2.49148
 Alpha virt. eigenvalues --    2.50504   2.53723   2.55451   2.57028   2.57639
 Alpha virt. eigenvalues --    2.59196   2.61022   2.64477   2.65384   2.69125
 Alpha virt. eigenvalues --    2.70611   2.71472   2.72281   2.73057   2.73360
 Alpha virt. eigenvalues --    2.74253   2.75347   2.78871   2.79329   2.84095
 Alpha virt. eigenvalues --    2.85847   2.87144   2.90068   2.92709   2.96492
 Alpha virt. eigenvalues --    2.97612   3.04775   3.16299   3.39884   3.40139
 Alpha virt. eigenvalues --    3.81613   3.92317   3.95062   4.05445   4.08368
 Alpha virt. eigenvalues --    4.11081   4.11791   4.15099   4.21285   4.22009
 Alpha virt. eigenvalues --    4.28281   4.32434   4.34571   4.36912   4.42038
 Alpha virt. eigenvalues --    4.43652   4.49657   4.52813   4.69315   4.70086
          Condensed to atoms (all electrons):
               1          2          3          4          5          6
     1  C    5.272238   0.331816  -0.044105  -0.033320  -0.049851   0.348592
     2  C    0.331816   4.821099   0.256466  -0.032608  -0.012539  -0.016447
     3  O   -0.044105   0.256466   8.199918   0.243432  -0.024505  -0.016704
     4  C   -0.033320  -0.032608   0.243432   4.952574   0.321286  -0.036536
     5  C   -0.049851  -0.012539  -0.024505   0.321286   5.091225   0.653047
     6  C    0.348592  -0.016447  -0.016704  -0.036536   0.653047   4.691635
     7  N   -0.072856   0.002232  -0.000002   0.007182  -0.034133   0.239092
     8  C    0.004454  -0.000141  -0.000004   0.000176  -0.013780  -0.032536
     9  N   -0.000102  -0.000003  -0.000021   0.004192   0.008858  -0.036023
    10  C    0.007575  -0.000284   0.001963  -0.050441   0.281277  -0.016780
    11  O   -0.000142   0.000028   0.000014  -0.003864  -0.069231   0.001530
    12  C   -0.000264   0.000002  -0.000000   0.000006   0.001221   0.002121
    13  N    0.000001  -0.000000  -0.000000  -0.000000  -0.000044   0.000054
    14  C   -0.000000   0.000000  -0.000000   0.000000   0.000000   0.000002
    15  C   -0.000000  -0.000000  -0.000000   0.000000   0.000000   0.000000
    16  C    0.000000  -0.000000   0.000000  -0.000000   0.000000  -0.000000
    17  C    0.000000   0.000000  -0.000000   0.000000  -0.000000  -0.000000
    18  C    0.000000   0.000000   0.000000   0.000000  -0.000000  -0.000000
    19  C   -0.000000  -0.000000   0.000000  -0.000000   0.000000  -0.000000
    20  C   -0.000000  -0.000000  -0.000000   0.000000   0.000000   0.000000
    21  H    0.334967  -0.026067   0.003699   0.000311   0.003790  -0.041736
    22  H    0.348044  -0.023657   0.001137   0.000984  -0.005113  -0.031733
    23  H   -0.052032   0.357436  -0.039502  -0.006457  -0.000226  -0.008161
    24  H   -0.039530   0.379692  -0.033341   0.004823   0.000578   0.004154
    25  H   -0.000673   0.006673  -0.031203   0.372539  -0.031690   0.000435
    26  H    0.001898  -0.011601  -0.037698   0.344324  -0.056198  -0.006297
    27  H   -0.006539   0.000014   0.000011  -0.000069   0.007656  -0.034311
    28  H   -0.000059  -0.000114  -0.000016  -0.008034  -0.097960   0.003629
    29  H    0.000027  -0.000002   0.000002  -0.000597   0.006390   0.000985
    30  H    0.000003  -0.000000   0.000000  -0.000000   0.000016  -0.000046
    31  H    0.000006  -0.000000   0.000000  -0.000001  -0.000082   0.000376
    32  H    0.000004   0.000000   0.000000  -0.000000  -0.000044  -0.000185
    33  H    0.000000  -0.000000   0.000000  -0.000000   0.000000  -0.000000
    34  H   -0.000000  -0.000000  -0.000000   0.000000  -0.000000   0.000000
    35  H    0.000000  -0.000000   0.000000   0.000000   0.000000   0.000000
    36  H   -0.000000   0.000000  -0.000000   0.000000   0.000000   0.000000
    37  H    0.000000  -0.000000   0.000000  -0.000000  -0.000000   0.000000
    38  H   -0.000000   0.000000  -0.000000   0.000000   0.000000   0.000000
    39  H   -0.000000  -0.000000  -0.000000   0.000000   0.000000   0.000000
               7          8          9         10         11         12
     1  C   -0.072856   0.004454  -0.000102   0.007575  -0.000142  -0.000264
     2  C    0.002232  -0.000141  -0.000003  -0.000284   0.000028   0.000002
     3  O   -0.000002  -0.000004  -0.000021   0.001963   0.000014  -0.000000
     4  C    0.007182   0.000176   0.004192  -0.050441  -0.003864   0.000006
     5  C   -0.034133  -0.013780   0.008858   0.281277  -0.069231   0.001221
     6  C    0.239092  -0.032536  -0.036023  -0.016780   0.001530   0.002121
     7  N    7.173197   0.265931  -0.065072  -0.041636   0.000503  -0.076143
     8  C    0.265931   4.549618   0.556638  -0.047901   0.002955   0.345265
     9  N   -0.065072   0.556638   6.910199   0.284255  -0.052356  -0.062551
    10  C   -0.041636  -0.047901   0.284255   4.775351   0.232945   0.005459
    11  O    0.000503   0.002955  -0.052356   0.232945   8.345257  -0.000108
    12  C   -0.076143   0.345265  -0.062551   0.005459  -0.000108   5.075152
    13  N   -0.004102  -0.043407   0.001317  -0.000001   0.000005   0.306556
    14  C   -0.000001   0.004792  -0.000071   0.000004  -0.000000  -0.054135
    15  C    0.000003  -0.000312  -0.000007  -0.000000   0.000000  -0.004388
    16  C    0.000006  -0.000015  -0.000001  -0.000000   0.000000  -0.000182
    17  C   -0.000000   0.000003   0.000000   0.000000   0.000000  -0.000130
    18  C   -0.000000   0.000000   0.000000  -0.000000  -0.000000   0.000004
    19  C   -0.000001  -0.000001   0.000000  -0.000000  -0.000000   0.000001
    20  C   -0.000019  -0.000030  -0.000000  -0.000000   0.000000  -0.000280
    21  H   -0.001666   0.000261  -0.000001  -0.000097  -0.000001  -0.000017
    22  H    0.000873  -0.000177   0.000006  -0.000190   0.000012   0.000006
    23  H    0.000052  -0.000004  -0.000000  -0.000006   0.000001  -0.000000
    24  H   -0.000092   0.000001  -0.000000   0.000010   0.000000  -0.000000
    25  H   -0.000039  -0.000006   0.000010  -0.006389   0.011555   0.000000
    26  H   -0.000084   0.000000  -0.000108   0.004918  -0.000424  -0.000000
    27  H    0.308148  -0.026156   0.004470   0.000163   0.000003  -0.001936
    28  H    0.001051   0.001345  -0.060029   0.392050  -0.066664  -0.000371
    29  H   -0.000092   0.002413   0.013586  -0.032372   0.224257  -0.000316
    30  H    0.004751  -0.012848   0.002764  -0.000087  -0.000002   0.357621
    31  H   -0.001383  -0.040289   0.003326  -0.000237  -0.000001   0.330706
    32  H    0.006997  -0.005288  -0.000418   0.000006   0.000003  -0.040214
    33  H    0.000005  -0.000166  -0.000001  -0.000000   0.000000   0.006223
    34  H   -0.000011   0.000265   0.000007   0.000000  -0.000000  -0.005817
    35  H    0.000000   0.000016   0.000000  -0.000000  -0.000000   0.000297
    36  H   -0.000000   0.000000  -0.000000  -0.000000  -0.000000   0.000001
    37  H    0.000000  -0.000000   0.000000   0.000000   0.000000  -0.000000
    38  H   -0.000000   0.000000   0.000000  -0.000000  -0.000000   0.000000
    39  H   -0.000001  -0.000005   0.000000  -0.000000  -0.000000   0.000079
              13         14         15         16         17         18
     1  C    0.000001  -0.000000  -0.000000   0.000000   0.000000   0.000000
     2  C   -0.000000   0.000000  -0.000000  -0.000000   0.000000   0.000000
     3  O   -0.000000  -0.000000  -0.000000   0.000000  -0.000000   0.000000
     4  C   -0.000000   0.000000   0.000000  -0.000000   0.000000   0.000000
     5  C   -0.000044   0.000000   0.000000   0.000000  -0.000000  -0.000000
     6  C    0.000054   0.000002   0.000000  -0.000000  -0.000000  -0.000000
     7  N   -0.004102  -0.000001   0.000003   0.000006  -0.000000  -0.000000
     8  C   -0.043407   0.004792  -0.000312  -0.000015   0.000003   0.000000
     9  N    0.001317  -0.000071  -0.000007  -0.000001   0.000000   0.000000
    10  C   -0.000001   0.000004  -0.000000  -0.000000   0.000000  -0.000000
    11  O    0.000005  -0.000000   0.000000   0.000000   0.000000  -0.000000
    12  C    0.306556  -0.054135  -0.004388  -0.000182  -0.000130   0.000004
    13  N    6.896910   0.323446  -0.070536   0.000026  -0.000129   0.000008
    14  C    0.323446   5.036454   0.342061  -0.045772   0.006052   0.000444
    15  C   -0.070536   0.342061   4.742809   0.541983  -0.022149  -0.035315
    16  C    0.000026  -0.045772   0.541983   4.959025   0.522345  -0.037392
    17  C   -0.000129   0.006052  -0.022149   0.522345   4.866788   0.554701
    18  C    0.000008   0.000444  -0.035315  -0.037392   0.554701   4.851034
    19  C    0.000069   0.005486  -0.020279  -0.043599  -0.027627   0.550889
    20  C   -0.005731  -0.058463   0.537637  -0.044388  -0.044915  -0.036544
    21  H    0.000001  -0.000000   0.000000   0.000000   0.000000  -0.000000
    22  H   -0.000001   0.000000  -0.000000  -0.000000  -0.000000   0.000000
    23  H   -0.000000  -0.000000   0.000000  -0.000000   0.000000   0.000000
    24  H   -0.000000   0.000000  -0.000000   0.000000  -0.000000   0.000000
    25  H   -0.000000   0.000000  -0.000000  -0.000000   0.000000   0.000000
    26  H    0.000000  -0.000000   0.000000  -0.000000  -0.000000  -0.000000
    27  H    0.000553  -0.000112   0.000133   0.000008  -0.000004  -0.000002
    28  H   -0.000003  -0.000000  -0.000000  -0.000000  -0.000000   0.000000
    29  H    0.000053  -0.000001  -0.000000  -0.000000  -0.000000   0.000000
    30  H   -0.036981  -0.005670  -0.001006   0.000272  -0.000001  -0.000000
    31  H   -0.058919  -0.001876   0.009875   0.003731   0.000213  -0.000028
    32  H    0.301151  -0.044838  -0.003345   0.000321  -0.000015  -0.000009
    33  H   -0.043366   0.366453  -0.044983   0.004363  -0.000270   0.000009
    34  H   -0.033905   0.366148  -0.038972  -0.004563   0.000142  -0.000001
    35  H    0.000261  -0.009264  -0.044658   0.355530  -0.045312   0.004796
    36  H    0.000002  -0.000168   0.003934  -0.039509   0.356346  -0.043151
    37  H    0.000000   0.000007   0.000687   0.004789  -0.043178   0.359287
    38  H    0.000003  -0.000166   0.003851   0.000825   0.004630  -0.042816
    39  H    0.000483  -0.006988  -0.049300   0.005663   0.000389   0.004723
              19         20         21         22         23         24
     1  C   -0.000000  -0.000000   0.334967   0.348044  -0.052032  -0.039530
     2  C   -0.000000  -0.000000  -0.026067  -0.023657   0.357436   0.379692
     3  O    0.000000  -0.000000   0.003699   0.001137  -0.039502  -0.033341
     4  C   -0.000000   0.000000   0.000311   0.000984  -0.006457   0.004823
     5  C    0.000000   0.000000   0.003790  -0.005113  -0.000226   0.000578
     6  C   -0.000000   0.000000  -0.041736  -0.031733  -0.008161   0.004154
     7  N   -0.000001  -0.000019  -0.001666   0.000873   0.000052  -0.000092
     8  C   -0.000001  -0.000030   0.000261  -0.000177  -0.000004   0.000001
     9  N    0.000000  -0.000000  -0.000001   0.000006  -0.000000  -0.000000
    10  C   -0.000000  -0.000000  -0.000097  -0.000190  -0.000006   0.000010
    11  O   -0.000000   0.000000  -0.000001   0.000012   0.000001   0.000000
    12  C    0.000001  -0.000280  -0.000017   0.000006  -0.000000  -0.000000
    13  N    0.000069  -0.005731   0.000001  -0.000001  -0.000000  -0.000000
    14  C    0.005486  -0.058463  -0.000000   0.000000  -0.000000   0.000000
    15  C   -0.020279   0.537637   0.000000  -0.000000   0.000000  -0.000000
    16  C   -0.043599  -0.044388   0.000000  -0.000000  -0.000000   0.000000
    17  C   -0.027627  -0.044915   0.000000  -0.000000   0.000000  -0.000000
    18  C    0.550889  -0.036544  -0.000000   0.000000   0.000000   0.000000
    19  C    4.858749   0.529832  -0.000000  -0.000000  -0.000000  -0.000000
    20  C    0.529832   4.981245   0.000000  -0.000000   0.000000  -0.000000
    21  H   -0.000000   0.000000   0.619775  -0.036145   0.001149  -0.000457
    22  H   -0.000000  -0.000000  -0.036145   0.578273   0.005672  -0.005693
    23  H   -0.000000   0.000000   0.001149   0.005672   0.643798  -0.042622
    24  H   -0.000000  -0.000000  -0.000457  -0.005693  -0.042622   0.586012
    25  H   -0.000000  -0.000000  -0.000018   0.000161  -0.000197  -0.000105
    26  H    0.000000   0.000000   0.000231  -0.000041   0.010590  -0.000418
    27  H    0.000004   0.000105   0.004621   0.001081   0.000012  -0.000001
    28  H    0.000000   0.000000   0.000025  -0.000005   0.000023  -0.000001
    29  H    0.000000  -0.000000   0.000000  -0.000002  -0.000000  -0.000000
    30  H   -0.000000  -0.000002  -0.000000   0.000000  -0.000000   0.000000
    31  H   -0.000078   0.000703   0.000003  -0.000000   0.000000  -0.000000
    32  H   -0.000206   0.006756  -0.000003   0.000005  -0.000000   0.000000
    33  H    0.000108  -0.006699   0.000000  -0.000000  -0.000000  -0.000000
    34  H   -0.000184   0.004652   0.000000   0.000000   0.000000  -0.000000
    35  H    0.000384   0.005847   0.000000   0.000000   0.000000   0.000000
    36  H    0.004689   0.000783  -0.000000   0.000000   0.000000  -0.000000
    37  H   -0.043392   0.004851  -0.000000   0.000000  -0.000000   0.000000
    38  H    0.357145  -0.040493   0.000000  -0.000000   0.000000  -0.000000
    39  H   -0.043248   0.354321   0.000000   0.000000   0.000000  -0.000000
              25         26         27         28         29         30
     1  C   -0.000673   0.001898  -0.006539  -0.000059   0.000027   0.000003
     2  C    0.006673  -0.011601   0.000014  -0.000114  -0.000002  -0.000000
     3  O   -0.031203  -0.037698   0.000011  -0.000016   0.000002   0.000000
     4  C    0.372539   0.344324  -0.000069  -0.008034  -0.000597  -0.000000
     5  C   -0.031690  -0.056198   0.007656  -0.097960   0.006390   0.000016
     6  C    0.000435  -0.006297  -0.034311   0.003629   0.000985  -0.000046
     7  N   -0.000039  -0.000084   0.308148   0.001051  -0.000092   0.004751
     8  C   -0.000006   0.000000  -0.026156   0.001345   0.002413  -0.012848
     9  N    0.000010  -0.000108   0.004470  -0.060029   0.013586   0.002764
    10  C   -0.006389   0.004918   0.000163   0.392050  -0.032372  -0.000087
    11  O    0.011555  -0.000424   0.000003  -0.066664   0.224257  -0.000002
    12  C    0.000000  -0.000000  -0.001936  -0.000371  -0.000316   0.357621
    13  N   -0.000000   0.000000   0.000553  -0.000003   0.000053  -0.036981
    14  C    0.000000  -0.000000  -0.000112  -0.000000  -0.000001  -0.005670
    15  C   -0.000000   0.000000   0.000133  -0.000000  -0.000000  -0.001006
    16  C   -0.000000  -0.000000   0.000008  -0.000000  -0.000000   0.000272
    17  C    0.000000  -0.000000  -0.000004  -0.000000  -0.000000  -0.000001
    18  C    0.000000  -0.000000  -0.000002   0.000000   0.000000  -0.000000
    19  C   -0.000000   0.000000   0.000004   0.000000   0.000000  -0.000000
    20  C   -0.000000   0.000000   0.000105   0.000000  -0.000000  -0.000002
    21  H   -0.000018   0.000231   0.004621   0.000025   0.000000  -0.000000
    22  H    0.000161  -0.000041   0.001081  -0.000005  -0.000002   0.000000
    23  H   -0.000197   0.010590   0.000012   0.000023  -0.000000  -0.000000
    24  H   -0.000105  -0.000418  -0.000001  -0.000001  -0.000000   0.000000
    25  H    0.539003  -0.044679   0.000004  -0.000070  -0.000342   0.000000
    26  H   -0.044679   0.658327   0.000004   0.006481   0.000029  -0.000000
    27  H    0.000004   0.000004   0.412443   0.000017  -0.000015  -0.000072
    28  H   -0.000070   0.006481   0.000017   0.703745   0.007183  -0.000028
    29  H   -0.000342   0.000029  -0.000015   0.007183   0.387527   0.000029
    30  H    0.000000  -0.000000  -0.000072  -0.000028   0.000029   0.546844
    31  H   -0.000000   0.000000   0.002050   0.000018   0.000008  -0.045737
    32  H    0.000000  -0.000000   0.001160  -0.000001  -0.000003   0.005949
    33  H   -0.000000   0.000000   0.000004   0.000000   0.000000   0.000338
    34  H   -0.000000   0.000000   0.000003   0.000000   0.000000   0.005046
    35  H    0.000000   0.000000   0.000000   0.000000   0.000000   0.000183
    36  H   -0.000000   0.000000   0.000000   0.000000  -0.000000   0.000000
    37  H    0.000000  -0.000000   0.000000   0.000000   0.000000   0.000000
    38  H   -0.000000   0.000000   0.000000   0.000000  -0.000000   0.000000
    39  H   -0.000000   0.000000   0.000002   0.000000  -0.000000   0.000002
              31         32         33         34         35         36
     1  C    0.000006   0.000004   0.000000  -0.000000   0.000000  -0.000000
     2  C   -0.000000   0.000000  -0.000000  -0.000000  -0.000000   0.000000
     3  O    0.000000   0.000000   0.000000  -0.000000   0.000000  -0.000000
     4  C   -0.000001  -0.000000  -0.000000   0.000000   0.000000   0.000000
     5  C   -0.000082  -0.000044   0.000000  -0.000000   0.000000   0.000000
     6  C    0.000376  -0.000185  -0.000000   0.000000   0.000000   0.000000
     7  N   -0.001383   0.006997   0.000005  -0.000011   0.000000  -0.000000
     8  C   -0.040289  -0.005288  -0.000166   0.000265   0.000016   0.000000
     9  N    0.003326  -0.000418  -0.000001   0.000007   0.000000  -0.000000
    10  C   -0.000237   0.000006  -0.000000   0.000000  -0.000000  -0.000000
    11  O   -0.000001   0.000003   0.000000  -0.000000  -0.000000  -0.000000
    12  C    0.330706  -0.040214   0.006223  -0.005817   0.000297   0.000001
    13  N   -0.058919   0.301151  -0.043366  -0.033905   0.000261   0.000002
    14  C   -0.001876  -0.044838   0.366453   0.366148  -0.009264  -0.000168
    15  C    0.009875  -0.003345  -0.044983  -0.038972  -0.044658   0.003934
    16  C    0.003731   0.000321   0.004363  -0.004563   0.355530  -0.039509
    17  C    0.000213  -0.000015  -0.000270   0.000142  -0.045312   0.356346
    18  C   -0.000028  -0.000009   0.000009  -0.000001   0.004796  -0.043151
    19  C   -0.000078  -0.000206   0.000108  -0.000184   0.000384   0.004689
    20  C    0.000703   0.006756  -0.006699   0.004652   0.005847   0.000783
    21  H    0.000003  -0.000003   0.000000   0.000000   0.000000  -0.000000
    22  H   -0.000000   0.000005  -0.000000   0.000000   0.000000   0.000000
    23  H    0.000000  -0.000000  -0.000000   0.000000   0.000000   0.000000
    24  H   -0.000000   0.000000  -0.000000  -0.000000   0.000000  -0.000000
    25  H   -0.000000   0.000000  -0.000000  -0.000000   0.000000  -0.000000
    26  H    0.000000  -0.000000   0.000000   0.000000   0.000000   0.000000
    27  H    0.002050   0.001160   0.000004   0.000003   0.000000   0.000000
    28  H    0.000018  -0.000001   0.000000   0.000000   0.000000   0.000000
    29  H    0.000008  -0.000003   0.000000   0.000000   0.000000  -0.000000
    30  H   -0.045737   0.005949   0.000338   0.005046   0.000183   0.000000
    31  H    0.679166  -0.003930  -0.000340  -0.000909  -0.000061  -0.000019
    32  H   -0.003930   0.473050  -0.000329   0.005980   0.000044   0.000000
    33  H   -0.000340  -0.000329   0.592715  -0.033211   0.000094   0.000004
    34  H   -0.000909   0.005980  -0.033211   0.575369   0.006320  -0.000005
    35  H   -0.000061   0.000044   0.000094   0.006320   0.602512  -0.005468
    36  H   -0.000019   0.000000   0.000004  -0.000005  -0.005468   0.595962
    37  H    0.000000  -0.000000  -0.000000  -0.000000  -0.000184  -0.005730
    38  H   -0.000001   0.000006  -0.000001   0.000003   0.000017  -0.000186
    39  H   -0.000041   0.002308   0.004210   0.000059  -0.000166   0.000018
              37         38         39
     1  C    0.000000  -0.000000  -0.000000
     2  C   -0.000000   0.000000  -0.000000
     3  O    0.000000  -0.000000  -0.000000
     4  C   -0.000000   0.000000   0.000000
     5  C   -0.000000   0.000000   0.000000
     6  C    0.000000   0.000000   0.000000
     7  N    0.000000  -0.000000  -0.000001
     8  C   -0.000000   0.000000  -0.000005
     9  N    0.000000   0.000000   0.000000
    10  C    0.000000  -0.000000  -0.000000
    11  O    0.000000  -0.000000  -0.000000
    12  C   -0.000000   0.000000   0.000079
    13  N    0.000000   0.000003   0.000483
    14  C    0.000007  -0.000166  -0.006988
    15  C    0.000687   0.003851  -0.049300
    16  C    0.004789   0.000825   0.005663
    17  C   -0.043178   0.004630   0.000389
    18  C    0.359287  -0.042816   0.004723
    19  C   -0.043392   0.357145  -0.043248
    20  C    0.004851  -0.040493   0.354321
    21  H   -0.000000   0.000000   0.000000
    22  H    0.000000  -0.000000   0.000000
    23  H   -0.000000   0.000000   0.000000
    24  H    0.000000  -0.000000  -0.000000
    25  H    0.000000  -0.000000  -0.000000
    26  H   -0.000000   0.000000   0.000000
    27  H    0.000000   0.000000   0.000002
    28  H    0.000000   0.000000   0.000000
    29  H    0.000000  -0.000000  -0.000000
    30  H    0.000000   0.000000   0.000002
    31  H    0.000000  -0.000001  -0.000041
    32  H   -0.000000   0.000006   0.002308
    33  H   -0.000000  -0.000001   0.004210
    34  H   -0.000000   0.000003   0.000059
    35  H   -0.000184   0.000017  -0.000166
    36  H   -0.005730  -0.000186   0.000018
    37  H    0.597130  -0.005658  -0.000188
    38  H   -0.005658   0.595684  -0.005455
    39  H   -0.000188  -0.005455   0.606047
 Mulliken charges:
               1
     1  C   -0.350154
     2  C   -0.031996
     3  O   -0.479541
     4  C   -0.079902
     5  C    0.020052
     6  C    0.331841
     7  N   -0.712690
     8  C    0.488934
     9  N   -0.512865
    10  C    0.210446
    11  O   -0.626275
    12  C   -0.183869
    13  N   -0.533774
    14  C   -0.223822
    15  C    0.152277
    16  C   -0.183465
    17  C   -0.127879
    18  C   -0.130637
    19  C   -0.128741
    20  C   -0.189168
    21  H    0.137376
    22  H    0.166502
    23  H    0.130474
    24  H    0.146990
    25  H    0.185031
    26  H    0.130746
    27  H    0.326545
    28  H    0.117790
    29  H    0.391255
    30  H    0.178666
    31  H    0.123750
    32  H    0.295089
    33  H    0.154841
    34  H    0.153584
    35  H    0.128812
    36  H    0.132496
    37  H    0.131580
    38  H    0.132612
    39  H    0.127089
 Sum of Mulliken charges =  -0.00000
 Mulliken charges with hydrogens summed into heavy atoms:
               1
     1  C   -0.046276
     2  C    0.245467
     3  O   -0.479541
     4  C    0.235875
     5  C    0.020052
     6  C    0.331841
     7  N   -0.386145
     8  C    0.488934
     9  N   -0.512865
    10  C    0.328236
    11  O   -0.235019
    12  C    0.118546
    13  N   -0.238685
    14  C    0.084603
    15  C    0.152277
    16  C   -0.054652
    17  C    0.004617
    18  C    0.000943
    19  C    0.003871
    20  C   -0.062079
 Electronic spatial extent (au):  <R**2>=           8105.2400
 Charge=             -0.0000 electrons
 Dipole moment (field-independent basis, Debye):
    X=              4.4374    Y=              3.5269    Z=             -1.3409  Tot=              5.8247
 Quadrupole moment (field-independent basis, Debye-Ang):
   XX=           -129.2014   YY=           -116.4171   ZZ=           -114.2484
   XY=             -2.4893   XZ=              4.4341   YZ=             -0.0807
 Traceless Quadrupole moment (field-independent basis, Debye-Ang):
   XX=             -9.2458   YY=              3.5386   ZZ=              5.7072
   XY=             -2.4893   XZ=              4.4341   YZ=             -0.0807
 Octapole moment (field-independent basis, Debye-Ang**2):
  XXX=             43.1156  YYY=             22.8550  ZZZ=              8.3733  XYY=             12.4623
  XXY=             18.6695  XXZ=            -45.3913  XZZ=              7.4312  YZZ=             -1.0814
  YYZ=              1.4889  XYZ=             12.3744
 Hexadecapole moment (field-independent basis, Debye-Ang**3):
 XXXX=          -9079.7098 YYYY=          -1683.8704 ZZZZ=           -485.1289 XXXY=            180.0723
 XXXZ=             30.8278 YYYX=            -52.3161 YYYZ=            -16.6550 ZZZX=            -21.3285
 ZZZY=             -3.6057 XXYY=          -1682.3852 XXZZ=          -1462.1490 YYZZ=           -363.0691
 XXYZ=            -19.9928 YYXZ=              4.4899 ZZXY=             12.8092
 N-N= 1.500182357699D+03 E-N=-5.088011346679D+03  KE= 8.894758132287D+02
 Calling FoFJK, ICntrl=      2127 FMM=F ISym2X=0 I1Cent= 0 IOpClX= 0 NMat=1 NMatS=1 NMatT=0.
 ***** Axes restored to original set *****
 -------------------------------------------------------------------
 Center     Atomic                   Forces (Hartrees/Bohr)
 Number     Number              X              Y              Z
 -------------------------------------------------------------------
      1        6          -0.004992366   -0.002800782    0.002087326
      2        6          -0.000815135    0.008159445    0.005968650
      3        8          -0.000991092   -0.001239200   -0.000435368
      4        6           0.006487641   -0.012586407    0.004612538
      5        6          -0.001632830   -0.004364384    0.000278117
      6        6           0.022858038    0.023798044   -0.005399256
      7        7          -0.020319514   -0.021757744    0.002655050
      8        6          -0.014132064    0.012519537   -0.002049206
      9        7           0.011434745   -0.009102782    0.001269762
     10        6           0.006152336   -0.005047844   -0.012563711
     11        8          -0.012655578    0.003377550    0.009702917
     12        6           0.022099605    0.000651153    0.009111091
     13        7          -0.009047688    0.013324921   -0.007808273
     14        6          -0.001125852   -0.005638079    0.012850411
     15        6          -0.006493726   -0.003663281   -0.004684935
     16        6           0.002387057   -0.002954586    0.001433060
     17        6           0.000080006   -0.000142411   -0.000955583
     18        6          -0.000419909   -0.003328147   -0.001537826
     19        6           0.001374850    0.002606516    0.001418012
     20        6          -0.000428895   -0.002124146   -0.002316018
     21        1          -0.001505253   -0.002961070   -0.000276700
     22        1           0.003453038   -0.003047273    0.000443441
     23        1          -0.003465671   -0.001768976   -0.003056012
     24        1           0.000971387    0.003605049    0.001515238
     25        1          -0.000344739   -0.001532589    0.000047865
     26        1          -0.001124907    0.004020502   -0.005697311
     27        1          -0.003124091    0.002164108   -0.002748966
     28        1          -0.002112802    0.003565040   -0.005243647
     29        1           0.001440438    0.006239700    0.004059364
     30        1           0.002252650   -0.000105454    0.003971283
     31        1          -0.002006819   -0.005838002   -0.006064749
     32        1          -0.000125378   -0.001014714   -0.000690537
     33        1           0.001478683    0.001995278    0.001276627
     34        1           0.005485388    0.001264847   -0.002710835
     35        1          -0.000043991    0.001460401    0.001598784
     36        1           0.000167793    0.000310841    0.000096102
     37        1          -0.000070727    0.000312752    0.000019100
     38        1          -0.000175403    0.000347898   -0.000053237
     39        1          -0.000969224    0.001294288   -0.000122566
 -------------------------------------------------------------------
 Cartesian Forces:  Max     0.023798044 RMS     0.006590374

 GradGradGradGradGradGradGradGradGradGradGradGradGradGradGradGradGradGrad
 Berny optimization.
 FormGI is forming the generalized inverse of G from B-inverse, IUseBI=4.
 Internal  Forces:  Max     0.021519006 RMS     0.003516299
 Search for a local minimum.
 Step number   1 out of a maximum of  224
 All quantities printed in internal units (Hartrees-Bohrs-Radians)
 Mixed Optimization -- RFO/linear search
 Second derivative matrix not updated -- first step.
 ITU=  0
     Eigenvalues ---    0.00314   0.00625   0.00711   0.00810   0.00895
     Eigenvalues ---    0.00927   0.01215   0.01255   0.01412   0.01477
     Eigenvalues ---    0.01496   0.01777   0.01966   0.02044   0.02064
     Eigenvalues ---    0.02095   0.02104   0.02132   0.02155   0.02162
     Eigenvalues ---    0.02166   0.02173   0.02295   0.02706   0.03865
     Eigenvalues ---    0.04816   0.04901   0.05411   0.05426   0.05687
     Eigenvalues ---    0.05790   0.06289   0.06498   0.06562   0.07453
     Eigenvalues ---    0.07565   0.09046   0.09227   0.09256   0.09513
[...]
   406    C   19  py     Val( 2p)     0.52666       0.04117
   407    C   19  py     Ryd( 3p)     0.00197       1.10165
   408    C   19  py     Ryd( 5p)     0.00019       3.93754
   409    C   19  py     Ryd( 4p)     0.00003       2.51551
   410    C   19  pz     Val( 2p)     0.53532       0.01551
   411    C   19  pz     Ryd( 3p)     0.00210       1.04722
   412    C   19  pz     Ryd( 5p)     0.00015       2.63791
   413    C   19  pz     Ryd( 4p)     0.00003       2.56753
   414    C   19  dxy    Ryd( 3d)     0.00030       2.46537
   415    C   19  dxz    Ryd( 3d)     0.00035       2.22456
   416    C   19  dyz    Ryd( 3d)     0.00029       2.49991
   417    C   19  dx2y2  Ryd( 3d)     0.00035       2.45133
   418    C   19  dz2    Ryd( 3d)     0.00023       1.95642
 
   419    C   20  S      Cor( 1S)     0.99950      -9.92698
   420    C   20  S      Val( 2S)     0.47051      -0.06297
   421    C   20  S      Ryd( 3S)     0.00064       1.07237
   422    C   20  S      Ryd( 4S)     0.00061       7.45499
   423    C   20  S      Ryd( 5S)     0.00007      11.51817
   424    C   20  px     Val( 2p)     0.52277       0.03481
   425    C   20  px     Ryd( 3p)     0.00189       0.86199
   426    C   20  px     Ryd( 5p)     0.00026       4.22076
   427    C   20  px     Ryd( 4p)     0.00003       3.44203
   428    C   20  py     Val( 2p)     0.57046       0.03475
   429    C   20  py     Ryd( 3p)     0.00295       1.13107
   430    C   20  py     Ryd( 4p)     0.00013       2.84882
   431    C   20  py     Ryd( 5p)     0.00003       3.38039
   432    C   20  pz     Val( 2p)     0.52588       0.01751
   433    C   20  pz     Ryd( 3p)     0.00159       0.85344
   434    C   20  pz     Ryd( 5p)     0.00015       3.60412
   435    C   20  pz     Ryd( 4p)     0.00001       3.15027
   436    C   20  dxy    Ryd( 3d)     0.00034       2.51207
   437    C   20  dxz    Ryd( 3d)     0.00028       2.46196
   438    C   20  dyz    Ryd( 3d)     0.00035       2.22541
   439    C   20  dx2y2  Ryd( 3d)     0.00038       2.29290
   440    C   20  dz2    Ryd( 3d)     0.00028       2.04614
 
   441    H   21  S      Val( 1S)     0.38857       0.11808
   442    H   21  S      Ryd( 2S)     0.00149       0.39357
   443    H   21  S      Ryd( 4S)     0.00043       1.66661
   444    H   21  S      Ryd( 3S)     0.00002       1.21948
   445    H   21  px     Ryd( 2p)     0.00008       1.92351
   446    H   21  py     Ryd( 2p)     0.00007       2.00402
   447    H   21  pz     Ryd( 2p)     0.00014       2.79219
 
   448    H   22  S      Val( 1S)     0.38494       0.13327
   449    H   22  S      Ryd( 2S)     0.00135       0.59982
   450    H   22  S      Ryd( 4S)     0.00048       1.95338
   451    H   22  S      Ryd( 3S)     0.00001       0.83299
   452    H   22  px     Ryd( 2p)     0.00008       2.07071
   453    H   22  py     Ryd( 2p)     0.00011       2.63425
   454    H   22  pz     Ryd( 2p)     0.00008       2.10038
 
   455    H   23  S      Val( 1S)     0.42166       0.09919
   456    H   23  S      Ryd( 2S)     0.00060       0.43662
   457    H   23  S      Ryd( 4S)     0.00049       1.57618
   458    H   23  S      Ryd( 3S)     0.00002       1.36661
   459    H   23  px     Ryd( 2p)     0.00013       2.13288
   460    H   23  py     Ryd( 2p)     0.00012       2.32987
   461    H   23  pz     Ryd( 2p)     0.00009       2.21209
 
   462    H   24  S      Val( 1S)     0.40487       0.11800
   463    H   24  S      Ryd( 2S)     0.00070       0.33795
   464    H   24  S      Ryd( 3S)     0.00039       1.14931
   465    H   24  S      Ryd( 4S)     0.00005       1.60236
   466    H   24  px     Ryd( 2p)     0.00012       2.20219
   467    H   24  py     Ryd( 2p)     0.00017       2.55098
   468    H   24  pz     Ryd( 2p)     0.00004       1.91988
 
   469    H   25  S      Val( 1S)     0.39773       0.12905
   470    H   25  S      Ryd( 2S)     0.00100       0.48217
   471    H   25  S      Ryd( 3S)     0.00029       1.38992
   472    H   25  S      Ryd( 4S)     0.00006       1.46996
   473    H   25  px     Ryd( 2p)     0.00011       1.93390
   474    H   25  py     Ryd( 2p)     0.00005       1.93858
   475    H   25  pz     Ryd( 2p)     0.00021       2.85090
 
   476    H   26  S      Val( 1S)     0.42054       0.09617
   477    H   26  S      Ryd( 2S)     0.00032       0.55944
   478    H   26  S      Ryd( 3S)     0.00081       0.97640
   479    H   26  S      Ryd( 4S)     0.00007       1.79125
   480    H   26  px     Ryd( 2p)     0.00018       2.30591
   481    H   26  py     Ryd( 2p)     0.00010       2.41599
   482    H   26  pz     Ryd( 2p)     0.00010       2.05154
 
   483    H   27  S      Val( 1S)     0.29050       0.15710
   484    H   27  S      Ryd( 2S)     0.00328       0.58759
   485    H   27  S      Ryd( 3S)     0.00053       1.64502
   486    H   27  S      Ryd( 4S)     0.00023       2.03099
   487    H   27  px     Ryd( 2p)     0.00015       2.21340
   488    H   27  py     Ryd( 2p)     0.00022       2.52265
   489    H   27  pz     Ryd( 2p)     0.00023       2.07519
 
   490    H   28  S      Val( 1S)     0.42625       0.10470
   491    H   28  S      Ryd( 2S)     0.00040       0.42764
   492    H   28  S      Ryd( 4S)     0.00076       1.58858
   493    H   28  S      Ryd( 3S)     0.00003       1.34225
   494    H   28  px     Ryd( 2p)     0.00015       2.26874
   495    H   28  py     Ryd( 2p)     0.00028       2.74616
   496    H   28  pz     Ryd( 2p)     0.00007       2.06224
 
   497    H   29  S      Val( 1S)     0.26891       0.19302
   498    H   29  S      Ryd( 2S)     0.00094       0.45689
   499    H   29  S      Ryd( 4S)     0.00030       2.19830
   500    H   29  S      Ryd( 3S)     0.00008       0.84959
   501    H   29  px     Ryd( 2p)     0.00074       2.06386
   502    H   29  py     Ryd( 2p)     0.00056       2.29128
   503    H   29  pz     Ryd( 2p)     0.00051       1.97983
 
   504    H   30  S      Val( 1S)     0.39297       0.12544
   505    H   30  S      Ryd( 2S)     0.00042       0.47579
   506    H   30  S      Ryd( 4S)     0.00042       1.52751
   507    H   30  S      Ryd( 3S)     0.00002       1.23300
   508    H   30  px     Ryd( 2p)     0.00009       1.99520
   509    H   30  py     Ryd( 2p)     0.00013       2.55458
   510    H   30  pz     Ryd( 2p)     0.00009       2.27419
 
   511    H   31  S      Val( 1S)     0.39985       0.10810
   512    H   31  S      Ryd( 2S)     0.00093       0.52093
   513    H   31  S      Ryd( 4S)     0.00036       1.67353
   514    H   31  S      Ryd( 3S)     0.00002       1.09282
   515    H   31  px     Ryd( 2p)     0.00008       1.97292
   516    H   31  py     Ryd( 2p)     0.00010       2.46263
   517    H   31  pz     Ryd( 2p)     0.00009       2.36582
 
   518    H   32  S      Val( 1S)     0.31835       0.18308
   519    H   32  S      Ryd( 2S)     0.00154       0.51911
   520    H   32  S      Ryd( 3S)     0.00061       1.42702
   521    H   32  S      Ryd( 4S)     0.00010       1.87553
   522    H   32  px     Ryd( 2p)     0.00035       1.99354
   523    H   32  py     Ryd( 2p)     0.00021       2.31614
   524    H   32  pz     Ryd( 2p)     0.00027       2.35828
 
   525    H   33  S      Val( 1S)     0.40038       0.12058
   526    H   33  S      Ryd( 2S)     0.00014       0.53638
   527    H   33  S      Ryd( 4S)     0.00040       1.53128
   528    H   33  S      Ryd( 3S)     0.00001       1.26831
   529    H   33  px     Ryd( 2p)     0.00012       2.26677
   530    H   33  py     Ryd( 2p)     0.00006       2.02264
   531    H   33  pz     Ryd( 2p)     0.00012       2.53220
 
   532    H   34  S      Val( 1S)     0.40416       0.12387
   533    H   34  S      Ryd( 2S)     0.00067       0.46985
   534    H   34  S      Ryd( 4S)     0.00047       1.62233
   535    H   34  S      Ryd( 3S)     0.00002       1.15331
   536    H   34  px     Ryd( 2p)     0.00012       2.37622
   537    H   34  py     Ryd( 2p)     0.00006       2.11002
   538    H   34  pz     Ryd( 2p)     0.00010       2.32329
 
   539    H   35  S      Val( 1S)     0.39399       0.13958
   540    H   35  S      Ryd( 2S)     0.00137       0.41624
   541    H   35  S      Ryd( 4S)     0.00036       1.59608
   542    H   35  S      Ryd( 3S)     0.00003       1.06087
   543    H   35  px     Ryd( 2p)     0.00013       2.35760
   544    H   35  py     Ryd( 2p)     0.00007       2.09755
   545    H   35  pz     Ryd( 2p)     0.00015       2.26310
 
   546    H   36  S      Val( 1S)     0.39196       0.14325
   547    H   36  S      Ryd( 2S)     0.00161       0.34047
   548    H   36  S      Ryd( 4S)     0.00027       1.48916
   549    H   36  S      Ryd( 3S)     0.00002       1.21377
   550    H   36  px     Ryd( 2p)     0.00007       1.98223
   551    H   36  py     Ryd( 2p)     0.00017       2.58739
   552    H   36  pz     Ryd( 2p)     0.00012       2.07910
 
   553    H   37  S      Val( 1S)     0.39575       0.14598
   554    H   37  S      Ryd( 2S)     0.00040       0.47927
   555    H   37  S      Ryd( 4S)     0.00030       1.42311
   556    H   37  S      Ryd( 3S)     0.00004       1.34627
   557    H   37  px     Ryd( 2p)     0.00017       2.43014
   558    H   37  py     Ryd( 2p)     0.00012       2.31398
   559    H   37  pz     Ryd( 2p)     0.00007       1.93780
 
   560    H   38  S      Val( 1S)     0.39305       0.15732
   561    H   38  S      Ryd( 2S)     0.00031       0.52394
   562    H   38  S      Ryd( 3S)     0.00052       1.63844
   563    H   38  S      Ryd( 4S)     0.00019       2.66086
   564    H   38  px     Ryd( 2p)     0.00017       2.39974
   565    H   38  py     Ryd( 2p)     0.00008       2.09639
   566    H   38  pz     Ryd( 2p)     0.00014       2.28635
 
   567    H   39  S      Val( 1S)     0.39256       0.15478
   568    H   39  S      Ryd( 2S)     0.00040       0.63490
   569    H   39  S      Ryd( 3S)     0.00090       1.18512
   570    H   39  S      Ryd( 4S)     0.00014       2.48949
   571    H   39  px     Ryd( 2p)     0.00008       2.06516
   572    H   39  py     Ryd( 2p)     0.00019       2.67718
   573    H   39  pz     Ryd( 2p)     0.00010       2.21213

 WARNING:  Population inversion found on atom  C    1
           Population inversion found on atom  C    2
           Population inversion found on atom  C    5
           Population inversion found on atom  C    6
           Population inversion found on atom  N    7
           Population inversion found on atom  C    8
           Population inversion found on atom  N    9
           Population inversion found on atom  C   10
           Population inversion found on atom  O   11
           Population inversion found on atom  C   12
           Population inversion found on atom  C   14
           Population inversion found on atom  C   15
           Population inversion found on atom  C   16
           Population inversion found on atom  C   17
           Population inversion found on atom  C   18
           Population inversion found on atom  C   19
           Population inversion found on atom  C   20
           Population inversion found on atom  H   21
           Population inversion found on atom  H   22
           Population inversion found on atom  H   23
           Population inversion found on atom  H   26
           Population inversion found on atom  H   28
           Population inversion found on atom  H   29
           Population inversion found on atom  H   30
           Population inversion found on atom  H   31
           Population inversion found on atom  H   33
           Population inversion found on atom  H   34
           Population inversion found on atom  H   35
           Population inversion found on atom  H   36
           Population inversion found on atom  H   37
           Population inversion found on atom  H   38
           Population inversion found on atom  H   39


 Summary of Natural Population Analysis:                  
                                                          
                                       Natural Population 
                Natural  -----------------------------------------------
    Atom  No    Charge         Core      Valence    Rydberg      Total
 -----------------------------------------------------------------------
      C    1   -0.21894      0.99959     2.20937    0.00998     3.21894
      C    2   -0.00416      0.99959     1.99123    0.01333     3.00416
      O    3   -0.29618      0.99989     3.28740    0.00889     4.29618
      C    4   -0.00915      0.99953     1.99884    0.01077     3.00915
      C    5   -0.06363      0.99940     2.05371    0.01052     3.06363
      C    6    0.09893      0.99938     1.88743    0.01425     2.90107
      N    7   -0.30507      0.99961     2.79356    0.01190     3.80507
      C    8    0.23751      0.99959     1.74521    0.01769     2.76249
      N    9   -0.29552      0.99963     2.78543    0.01045     3.79552
      C   10    0.13641      0.99953     1.84657    0.01749     2.86359
      O   11   -0.37854      0.99990     3.37185    0.00680     4.37854
      C   12   -0.10867      0.99958     2.09631    0.01279     3.10867
      N   13   -0.33220      0.99976     2.82175    0.01069     3.83220
      C   14   -0.09352      0.99958     2.08177    0.01217     3.09352
      C   15   -0.03460      0.99949     2.02434    0.01077     3.03460
      C   16   -0.10775      0.99950     2.09656    0.01169     3.10775
      C   17   -0.10042      0.99955     2.08923    0.01164     3.10042
      C   18   -0.10590      0.99955     2.09594    0.01041     3.10590
      C   19   -0.09564      0.99955     2.08620    0.00989     3.09564
      C   20   -0.09913      0.99950     2.08962    0.01001     3.09913
      H   21    0.10919      0.00000     0.38857    0.00225     0.39081
      H   22    0.11294      0.00000     0.38494    0.00212     0.38706
      H   23    0.07688      0.00000     0.42166    0.00145     0.42312
      H   24    0.09366      0.00000     0.40487    0.00147     0.40634
      H   25    0.10054      0.00000     0.39773    0.00173     0.39946
      H   26    0.07789      0.00000     0.42054    0.00157     0.42211
      H   27    0.20486      0.00000     0.29050    0.00464     0.29514
      H   28    0.07206      0.00000     0.42625    0.00169     0.42794
      H   29    0.22796      0.00000     0.26891    0.00313     0.27204
      H   30    0.10587      0.00000     0.39297    0.00117     0.39413
      H   31    0.09857      0.00000     0.39985    0.00158     0.40143
      H   32    0.17856      0.00000     0.31835    0.00309     0.32144
      H   33    0.09876      0.00000     0.40038    0.00086     0.40124
      H   34    0.09441      0.00000     0.40416    0.00143     0.40559
      H   35    0.10390      0.00000     0.39399    0.00211     0.39610
      H   36    0.10579      0.00000     0.39196    0.00226     0.39421
      H   37    0.10315      0.00000     0.39575    0.00110     0.39685
      H   38    0.10554      0.00000     0.39305    0.00141     0.39446
      H   39    0.10562      0.00000     0.39256    0.00182     0.39438
 =======================================================================
   * Total *   -0.00000     19.99171    52.73929    0.26900    73.00000

                                 Natural Population      
 --------------------------------------------------------
   Core                      19.99171 ( 99.9586% of  20)
   Valence                   52.73929 ( 99.5081% of  53)
   Natural Minimal Basis     72.73100 ( 99.6315% of  73)
   Natural Rydberg Basis      0.26900 (  0.3685% of  73)
 --------------------------------------------------------

    Atom  No          Natural Electron Configuration
 ----------------------------------------------------------------------------
      C    1      [core]2S( 0.51)2p( 1.70)
      C    2      [core]2S( 0.50)2p( 1.49)
      O    3      [core]2S( 0.81)2p( 2.48)
      C    4      [core]2S( 0.49)2p( 1.50)3p( 0.01)
      C    5      [core]2S( 0.44)2p( 1.61)
      C    6      [core]2S( 0.41)2p( 1.48)3p( 0.01)
      N    7      [core]2S( 0.62)2p( 2.17)
      C    8      [core]2S( 0.40)2p( 1.35)3p( 0.01)
      N    9      [core]2S( 0.69)2p( 2.10)3p( 0.01)
      C   10      [core]2S( 0.45)2p( 1.39)3p( 0.01)
      O   11      [core]2S( 0.85)2p( 2.52)
      C   12      [core]2S( 0.50)2p( 1.60)
      N   13      [core]2S( 0.67)2p( 2.15)3p( 0.01)
      C   14      [core]2S( 0.49)2p( 1.59)3p( 0.01)
      C   15      [core]2S( 0.45)2p( 1.58)3p( 0.01)
      C   16      [core]2S( 0.47)2p( 1.63)3p( 0.01)
      C   17      [core]2S( 0.47)2p( 1.61)
      C   18      [core]2S( 0.48)2p( 1.62)3p( 0.01)
      C   19      [core]2S( 0.48)2p( 1.61)3p( 0.01)
      C   20      [core]2S( 0.47)2p( 1.62)3p( 0.01)
      H   21            1S( 0.39)
      H   22            1S( 0.38)
      H   23            1S( 0.42)
      H   24            1S( 0.40)
      H   25            1S( 0.40)
      H   26            1S( 0.42)
      H   27            1S( 0.29)
      H   28            1S( 0.43)
      H   29            1S( 0.27)
      H   30            1S( 0.39)
      H   31            1S( 0.40)
      H   32            1S( 0.32)
      H   33            1S( 0.40)
      H   34            1S( 0.40)
      H   35            1S( 0.39)
      H   36            1S( 0.39)
      H   37            1S( 0.40)
      H   38            1S( 0.39)
      H   39            1S( 0.39)


 NBO analysis skipped by request.
 1\1\GINC-NODE376\SP\UB3LYP\6-311++G(d,p)\C15H19N3O2(1-,2)\VSC10255\13-
 Dec-2020\0\\# B3LYP/6-311++G(d,p) empiricaldispersion=gd3bj scf=xqc po
 p=npa geom=check\\CID_123919256_JID_10727_Energie_anion\\-1,2\C,0,-0.3
 3791065,-2.5518513867,-1.2228480357\C,0,1.1533718875,-2.2076639269,-1.
 2440065875\O,0,1.5837875451,-1.771589649,0.0339470421\C,0,0.990067085,
 -0.536142569,0.4103295107\C,0,-0.4901758996,-0.4771563489,0.1459046142
 \C,0,-1.0931618887,-1.4194546258,-0.5903221207\N,0,-2.4721960219,-1.35
 50602475,-0.8168640353\C,0,-3.2075466069,-0.3706191116,-0.1996558314\N
 ,0,-2.7076357861,0.6154299066,0.4527319805\C,0,-1.2840502658,0.6530259
 282,0.7383290734\O,0,-1.0904881452,0.6056125783,2.1647176652\C,0,-4.72
 51962634,-0.4476416877,-0.3226483952\N,0,-5.4157034324,-0.4219814721,0
 .964589623\C,0,-5.5073836292,-1.7225734894,1.6413619851\C,0,-4.2377558
 875,-2.558045701,1.7074363562\C,0,-4.1726067128,-3.8002617578,1.065829
 218\C,0,-2.9929826681,-4.5496253137,1.0716013266\C,0,-1.8573338213,-4.
 0546072078,1.7141070787\C,0,-1.9087518108,-2.8107749711,2.3488022345\C
 ,0,-3.0924751597,-2.0781925664,2.3551144069\H,0,-0.6998965691,-2.72583
 77619,-2.2455841554\H,0,-0.5078368402,-3.4746287222,-0.6531498473\H,0,
 1.3452736495,-1.4299327713,-2.0017143024\H,0,1.7589660985,-3.083871543
 2,-1.4911488414\H,0,1.179360454,-0.4232121586,1.481466434\H,0,1.499713
 7675,0.3025041165,-0.1024020076\H,0,-2.9474812433,-2.2133960531,-1.060
 9493814\H,0,-0.8936227272,1.623162873,0.3839100031\H,0,-1.6571078119,1
 .3083393896,2.5248078647\H,0,-5.0517169264,0.4184178126,-0.9100227353\
 H,0,-5.0273748356,-1.3463087056,-0.8724831633\H,0,-4.9251055436,0.2510
 852524,1.5512106111\H,0,-5.8799906937,-1.5222097263,2.6529672641\H,0,-
 6.28450361,-2.3087512288,1.1339328121\H,0,-5.0561039811,-4.1850572906,
 0.5602071902\H,0,-2.9623596764,-5.5160937399,0.5751178092\H,0,-0.93474
 66132,-4.6284280013,1.7151182869\H,0,-1.0240964968,-2.3965797948,2.821
 0570912\H,0,-3.0992422691,-1.0962483272,2.8161419582\\Version=ES64L-G1
 6RevA.03\State=2-A\HF=-898.0272975\S2=0.750047\S2-1=0.\S2A=0.75\RMSD=5
 .887e-11\Dipole=0.6268491,2.4916956,1.6996867\Quadrupole=-6.5948169,-3
 .2696961,9.864513,-1.0228152,1.6124124,-6.5602706\PG=C01 [X(C15H19N3O2
 )]\\@


 YOU SHOULDN'T LET PEOPLE DRIVE YOU CRAZY
 WHEN YOU KNOW IT'S WITHIN WALKING DISTANCE.
 Job cpu time:       0 days  1 hours 40 minutes 53.7 seconds.
 Elapsed time:       0 days  0 hours 25 minutes 20.2 seconds.
 File lengths (MBytes):  RWF=    360 Int=      0 D2E=      0 Chk=     36 Scr=      8
 Normal termination of Gaussian 16 at Sun Dec 13 19:07:02 2020.
