 Entering Gaussian System, Link 0=g16
 Initial command:
 /apps/brussel/CO7/ivybridge-ib/software/Gaussian/G16.A.03-intel-2017b/g16/l1.exe "/scratch/brussel/102/vsc10255/3565561[10544].master01.hydra.brussel.vsc/Gau-38820.inp" -scrdir="/scratch/brussel/102/vsc10255/3565561[10544].master01.hydra.brussel.vsc/"
 Entering Link 1 = /apps/brussel/CO7/ivybridge-ib/software/Gaussian/G16.A.03-intel-2017b/g16/l1.exe.bin PID=     38821.
  
 Copyright (c) 1988,1990,1992,1993,1995,1998,2003,2009,2016,
            Gaussian, Inc.  All Rights Reserved.
  
 This is part of the Gaussian(R) 16 program.  It is based on
 the Gaussian(R) 09 system (copyright 2009, Gaussian, Inc.),
 the Gaussian(R) 03 system (copyright 2003, Gaussian, Inc.),
 the Gaussian(R) 98 system (copyright 1998, Gaussian, Inc.),
 the Gaussian(R) 94 system (copyright 1995, Gaussian, Inc.),
 the Gaussian 92(TM) system (copyright 1992, Gaussian, Inc.),
 the Gaussian 90(TM) system (copyright 1990, Gaussian, Inc.),
 the Gaussian 88(TM) system (copyright 1988, Gaussian, Inc.),
 the Gaussian 86(TM) system (copyright 1986, Carnegie Mellon
 University), and the Gaussian 82(TM) system (copyright 1983,
 Carnegie Mellon University). Gaussian is a federally registered
 trademark of Gaussian, Inc.
  
 This software contains proprietary and confidential information,
 including trade secrets, belonging to Gaussian, Inc.
  
 This software is provided under written license and may be
 used, copied, transmitted, or stored only in accord with that
 written license.
  
 The following legend is applicable only to US Government
 contracts under FAR:
  
                    RESTRICTED RIGHTS LEGEND
  
 Use, reproduction and disclosure by the US Government is
 subject to restrictions as set forth in subparagraphs (a)
 and (c) of the Commercial Computer Software - Restricted
 Rights clause in FAR 52.227-19.
  
 Gaussian, Inc.
 340 Quinnipiac St., Bldg. 40, Wallingford CT 06492
  
  
 ---------------------------------------------------------------
 Warning -- This program may not be used in any manner that
 competes with the business of Gaussian, Inc. or will provide
 assistance to any competitor of Gaussian, Inc.  The licensee
 of this program is prohibited from giving any competitor of
 Gaussian, Inc. access to this program.  By using this program,
 the user acknowledges that Gaussian, Inc. is engaged in the
 business of creating and licensing software in the field of
 computational chemistry and represents and warrants to the
 licensee that it is not a competitor of Gaussian, Inc. and that
 it will not use this program in any manner prohibited above.
 ---------------------------------------------------------------
  

 Cite this work as:
 Gaussian 16, Revision A.03,
 M. J. Frisch, G. W. Trucks, H. B. Schlegel, G. E. Scuseria, 
 M. A. Robb, J. R. Cheeseman, G. Scalmani, V. Barone, 
 G. A. Petersson, H. Nakatsuji, X. Li, M. Caricato, A. V. Marenich, 
 J. Bloino, B. G. Janesko, R. Gomperts, B. Mennucci, H. P. Hratchian, 
 J. V. Ortiz, A. F. Izmaylov, J. L. Sonnenberg, D. Williams-Young, 
 F. Ding, F. Lipparini, F. Egidi, J. Goings, B. Peng, A. Petrone, 
 T. Henderson, D. Ranasinghe, V. G. Zakrzewski, J. Gao, N. Rega, 
 G. Zheng, W. Liang, M. Hada, M. Ehara, K. Toyota, R. Fukuda, 
 J. Hasegawa, M. Ishida, T. Nakajima, Y. Honda, O. Kitao, H. Nakai, 
 T. Vreven, K. Throssell, J. A. Montgomery, Jr., J. E. Peralta, 
 F. Ogliaro, M. J. Bearpark, J. J. Heyd, E. N. Brothers, K. N. Kudin, 
 V. N. Staroverov, T. A. Keith, R. Kobayashi, J. Normand, 
 K. Raghavachari, A. P. Rendell, J. C. Burant, S. S. Iyengar, 
 J. Tomasi, M. Cossi, J. M. Millam, M. Klene, C. Adamo, R. Cammi, 
 J. W. Ochterski, R. L. Martin, K. Morokuma, O. Farkas, 
 J. B. Foresman, and D. J. Fox, Gaussian, Inc., Wallingford CT, 2016.
 
 ******************************************
 Gaussian 16:  ES64L-G16RevA.03 25-Dec-2016
                12-Dec-2020 
 ******************************************
 %chk=JID_10544.chk
 %mem=8GB
 %nprocshared=4
 Will use up to    4 processors via shared memory.
 -----------------------------------------------------------
 # opt freq B3LYP/6-31G(d) empiricaldispersion=gd3bj scf=xqc
 -----------------------------------------------------------
 1/18=20,19=15,26=3,38=1/1,3;
 2/9=110,12=2,17=6,18=5,40=1/2;
 3/5=1,6=6,7=1,11=2,25=1,30=1,71=1,74=-5,124=41/1,2,3;
 4//1;
 5/5=2,8=3,13=1,38=5/2,8;
 6/7=2,8=2,9=2,10=2,28=1/1;
 7//1,2,3,16;
 1/18=20,19=15,26=3/3(2);
 2/9=110/2;
 99//99;
 2/9=110/2;
 3/5=1,6=6,7=1,11=2,25=1,30=1,71=1,74=-5,124=41/1,2,3;
 4/5=5,16=3,69=1/1;
 5/5=2,8=3,13=1,38=5/2,8;
 7//1,2,3,16;
 1/18=20,19=15,26=3/3(-5);
 2/9=110/2;
 6/7=2,8=2,9=2,10=2,19=2,28=1/1;
 99/9=1/99;
 -------------------------------
 CID_82216156_JID_10544_neutraal
 -------------------------------
 Symbolic Z-matrix:
 Charge =  0 Multiplicity = 1
 C                     1.05751   0.04717   0.06684 
 O                     0.61757  -1.29359   0.28059 
 C                     0.73145  -2.00762  -0.88304 
 C                    -0.34566  -2.17412  -1.75779 
 C                    -0.15825  -2.90073  -2.93897 
 C                     1.06848  -3.52194  -3.22806 
 C                     2.13109  -3.35274  -2.32615 
 C                     1.96153  -2.60857  -1.15806 
 C                     1.26564  -4.38203  -4.45894 
 C                     1.42797  -5.9068   -4.17742 
 N                     0.13734  -6.62247  -4.11616 
 C                     0.16427  -7.96255  -4.7289 
 C                     1.0691   -9.03663  -4.10621 
 O                     0.47147  -9.59313  -2.93435 
 C                    -0.59184  -6.54971  -2.83653 
 C                     0.17166  -6.52054  -1.49482 
 O                     1.06656  -7.6107   -1.32752 
 O                     0.20316  -4.19538  -5.40345 
 O                    -1.59849  -1.64275  -1.60333 
 C                    -2.11893  -1.70988  -0.27932 
 H                     0.87254   0.60995   0.98674 
 H                     0.49754   0.5295   -0.74238 
 H                     2.13273   0.08175  -0.13978 
 H                    -0.99484  -3.00053  -3.62788 
 H                     3.09687  -3.81547  -2.51898 
 H                     2.78746  -2.49965  -0.46091 
 H                     2.17356  -4.02346  -4.96007 
 H                     1.97266  -6.29071  -5.05154 
 H                     2.07684  -6.11034  -3.31968 
 H                    -0.86342  -8.34509  -4.77731 
 H                     0.47078  -7.83424  -5.77518 
 H                     1.20117  -9.85259  -4.82483 
 H                     2.05813  -8.64341  -3.85255 
 H                     1.02237  -10.35902  -2.68515 
 H                    -1.21215  -5.64628  -2.87186 
 H                    -1.31587  -7.37366  -2.78982 
 H                     0.74301  -5.60104  -1.37245 
 H                    -0.55073  -6.55589  -0.67221 
 H                     0.63534  -8.38516  -1.74646 
 H                    -0.34589  -5.00074  -5.30624 
 H                    -1.81011  -2.61903   0.24871 
 H                    -1.84596  -0.81305   0.28379 
 H                    -3.21078  -1.72804  -0.35492 
 

 GradGradGradGradGradGradGradGradGradGradGradGradGradGradGradGradGradGrad
 Berny optimization.
 Initialization pass.
                           ----------------------------
                           !    Initial Parameters    !
                           ! (Angstroms and Degrees)  !
 --------------------------                            --------------------------
 ! Name  Definition              Value          Derivative Info.                !
 --------------------------------------------------------------------------------
 ! R1    R(1,2)                  1.4272         estimate D2E/DX2                !
 ! R2    R(1,21)                 1.0941         estimate D2E/DX2                !
 ! R3    R(1,22)                 1.0959         estimate D2E/DX2                !
 ! R4    R(1,23)                 1.0954         estimate D2E/DX2                !
 ! R5    R(2,3)                  1.37           estimate D2E/DX2                !
 ! R6    R(3,4)                  1.3975         estimate D2E/DX2                !
 ! R7    R(3,8)                  1.3964         estimate D2E/DX2                !
 ! R8    R(4,5)                  1.3994         estimate D2E/DX2                !
 ! R9    R(4,19)                 1.3696         estimate D2E/DX2                !
 ! R10   R(5,6)                  1.4051         estimate D2E/DX2                !
 ! R11   R(5,24)                 1.0883         estimate D2E/DX2                !
 ! R12   R(6,7)                  1.404          estimate D2E/DX2                !
 ! R13   R(6,9)                  1.5145         estimate D2E/DX2                !
 ! R14   R(7,8)                  1.3953         estimate D2E/DX2                !
 ! R15   R(7,25)                 1.0881         estimate D2E/DX2                !
 ! R16   R(8,26)                 1.0863         estimate D2E/DX2                !
 ! R17   R(9,10)                 1.559          estimate D2E/DX2                !
 ! R18   R(9,18)                 1.4338         estimate D2E/DX2                !
 ! R19   R(9,27)                 1.0973         estimate D2E/DX2                !
 ! R20   R(10,11)                1.477          estimate D2E/DX2                !
 ! R21   R(10,28)                1.0992         estimate D2E/DX2                !
 ! R22   R(10,29)                1.0946         estimate D2E/DX2                !
 ! R23   R(11,12)                1.4738         estimate D2E/DX2                !
 ! R24   R(11,15)                1.4746         estimate D2E/DX2                !
 ! R25   R(12,13)                1.5363         estimate D2E/DX2                !
 ! R26   R(12,30)                1.0976         estimate D2E/DX2                !
 ! R27   R(12,31)                1.0978         estimate D2E/DX2                !
 ! R28   R(13,14)                1.4283         estimate D2E/DX2                !
 ! R29   R(13,32)                1.0953         estimate D2E/DX2                !
 ! R30   R(13,33)                1.0941         estimate D2E/DX2                !
 ! R31   R(14,34)                0.9758         estimate D2E/DX2                !
 ! R32   R(15,16)                1.544          estimate D2E/DX2                !
 ! R33   R(15,35)                1.0965         estimate D2E/DX2                !
 ! R34   R(15,36)                1.0979         estimate D2E/DX2                !
 ! R35   R(16,17)                1.4203         estimate D2E/DX2                !
 ! R36   R(16,37)                1.0894         estimate D2E/DX2                !
 ! R37   R(16,38)                1.0953         estimate D2E/DX2                !
 ! R38   R(17,39)                0.9804         estimate D2E/DX2                !
 ! R39   R(18,40)                0.9795         estimate D2E/DX2                !
 ! R40   R(19,20)                1.4242         estimate D2E/DX2                !
 ! R41   R(20,41)                1.0958         estimate D2E/DX2                !
 ! R42   R(20,42)                1.0936         estimate D2E/DX2                !
 ! R43   R(20,43)                1.0946         estimate D2E/DX2                !
 ! A1    A(2,1,21)             107.7688         estimate D2E/DX2                !
 ! A2    A(2,1,22)             111.5026         estimate D2E/DX2                !
 ! A3    A(2,1,23)             111.1291         estimate D2E/DX2                !
 ! A4    A(21,1,22)            107.9416         estimate D2E/DX2                !
 ! A5    A(21,1,23)            107.9555         estimate D2E/DX2                !
 ! A6    A(22,1,23)            110.387          estimate D2E/DX2                !
 ! A7    A(1,2,3)              109.682          estimate D2E/DX2                !
 ! A8    A(2,3,4)              121.9837         estimate D2E/DX2                !
 ! A9    A(2,3,8)              117.6984         estimate D2E/DX2                !
 ! A10   A(4,3,8)              120.2907         estimate D2E/DX2                !
 ! A11   A(3,4,5)              119.1417         estimate D2E/DX2                !
 ! A12   A(3,4,19)             126.0296         estimate D2E/DX2                !
 ! A13   A(5,4,19)             114.7809         estimate D2E/DX2                !
 ! A14   A(4,5,6)              121.3417         estimate D2E/DX2                !
 ! A15   A(4,5,24)             118.618          estimate D2E/DX2                !
 ! A16   A(6,5,24)             120.0221         estimate D2E/DX2                !
 ! A17   A(5,6,7)              118.38           estimate D2E/DX2                !
 ! A18   A(5,6,9)              122.1368         estimate D2E/DX2                !
 ! A19   A(7,6,9)              119.4722         estimate D2E/DX2                !
 ! A20   A(6,7,8)              120.6683         estimate D2E/DX2                !
 ! A21   A(6,7,25)             120.4414         estimate D2E/DX2                !
 ! A22   A(8,7,25)             118.8817         estimate D2E/DX2                !
 ! A23   A(3,8,7)              120.0957         estimate D2E/DX2                !
 ! A24   A(3,8,26)             120.0145         estimate D2E/DX2                !
 ! A25   A(7,8,26)             119.8895         estimate D2E/DX2                !
 ! A26   A(6,9,10)             114.9752         estimate D2E/DX2                !
 ! A27   A(6,9,18)             111.4067         estimate D2E/DX2                !
 ! A28   A(6,9,27)             107.0564         estimate D2E/DX2                !
 ! A29   A(10,9,18)            108.8704         estimate D2E/DX2                !
 ! A30   A(10,9,27)            108.4162         estimate D2E/DX2                !
 ! A31   A(18,9,27)            105.6495         estimate D2E/DX2                !
 ! A32   A(9,10,11)            112.9789         estimate D2E/DX2                !
 ! A33   A(9,10,28)            104.4536         estimate D2E/DX2                !
 ! A34   A(9,10,29)            112.649          estimate D2E/DX2                !
 ! A35   A(11,10,28)           107.2629         estimate D2E/DX2                !
 ! A36   A(11,10,29)           113.2893         estimate D2E/DX2                !
 ! A37   A(28,10,29)           105.3352         estimate D2E/DX2                !
 ! A38   A(10,11,12)           114.0395         estimate D2E/DX2                !
 ! A39   A(10,11,15)           116.3701         estimate D2E/DX2                !
 ! A40   A(12,11,15)           114.5001         estimate D2E/DX2                !
 ! A41   A(11,12,13)           118.553          estimate D2E/DX2                !
 ! A42   A(11,12,30)           108.5495         estimate D2E/DX2                !
 ! A43   A(11,12,31)           107.1626         estimate D2E/DX2                !
 ! A44   A(13,12,30)           109.0055         estimate D2E/DX2                !
 ! A45   A(13,12,31)           107.6729         estimate D2E/DX2                !
 ! A46   A(30,12,31)           105.0769         estimate D2E/DX2                !
 ! A47   A(12,13,14)           111.0089         estimate D2E/DX2                !
 ! A48   A(12,13,32)           109.0221         estimate D2E/DX2                !
 ! A49   A(12,13,33)           112.0306         estimate D2E/DX2                !
 ! A50   A(14,13,32)           107.3671         estimate D2E/DX2                !
 ! A51   A(14,13,33)           109.1495         estimate D2E/DX2                !
 ! A52   A(32,13,33)           108.1102         estimate D2E/DX2                !
 ! A53   A(13,14,34)           106.2071         estimate D2E/DX2                !
 ! A54   A(11,15,16)           120.6965         estimate D2E/DX2                !
 ! A55   A(11,15,35)           107.0046         estimate D2E/DX2                !
 ! A56   A(11,15,36)           109.0264         estimate D2E/DX2                !
 ! A57   A(16,15,35)           106.989          estimate D2E/DX2                !
 ! A58   A(16,15,36)           107.6571         estimate D2E/DX2                !
 ! A59   A(35,15,36)           104.2795         estimate D2E/DX2                !
 ! A60   A(15,16,17)           113.5421         estimate D2E/DX2                !
 ! A61   A(15,16,37)           111.8935         estimate D2E/DX2                !
 ! A62   A(15,16,38)           109.0186         estimate D2E/DX2                !
 ! A63   A(17,16,37)           107.7071         estimate D2E/DX2                !
 ! A64   A(17,16,38)           107.5961         estimate D2E/DX2                !
 ! A65   A(37,16,38)           106.7835         estimate D2E/DX2                !
 ! A66   A(16,17,39)           106.1913         estimate D2E/DX2                !
 ! A67   A(9,18,40)            104.0607         estimate D2E/DX2                !
 ! A68   A(4,19,20)            114.8867         estimate D2E/DX2                !
 ! A69   A(19,20,41)           112.5875         estimate D2E/DX2                !
 ! A70   A(19,20,42)           110.4157         estimate D2E/DX2                !
 ! A71   A(19,20,43)           107.5223         estimate D2E/DX2                !
 ! A72   A(41,20,42)           111.2191         estimate D2E/DX2                !
 ! A73   A(41,20,43)           107.4955         estimate D2E/DX2                !
 ! A74   A(42,20,43)           107.3466         estimate D2E/DX2                !
 ! D1    D(21,1,2,3)           175.1617         estimate D2E/DX2                !
 ! D2    D(22,1,2,3)            56.8722         estimate D2E/DX2                !
 ! D3    D(23,1,2,3)           -66.7458         estimate D2E/DX2                !
 ! D4    D(1,2,3,4)            -95.559          estimate D2E/DX2                !
 ! D5    D(1,2,3,8)             86.3349         estimate D2E/DX2                !
 ! D6    D(2,3,4,5)            179.1776         estimate D2E/DX2                !
 ! D7    D(2,3,4,19)             1.8294         estimate D2E/DX2                !
 ! D8    D(8,3,4,5)             -2.7645         estimate D2E/DX2                !
 ! D9    D(8,3,4,19)           179.8874         estimate D2E/DX2                !
 ! D10   D(2,3,8,7)            179.7035         estimate D2E/DX2                !
 ! D11   D(2,3,8,26)            -0.1171         estimate D2E/DX2                !
 ! D12   D(4,3,8,7)              1.5639         estimate D2E/DX2                !
 ! D13   D(4,3,8,26)          -178.2566         estimate D2E/DX2                !
 ! D14   D(3,4,5,6)              3.3127         estimate D2E/DX2                !
 ! D15   D(3,4,5,24)          -178.2399         estimate D2E/DX2                !
 ! D16   D(19,4,5,6)          -179.0493         estimate D2E/DX2                !
 ! D17   D(19,4,5,24)           -0.6018         estimate D2E/DX2                !
 ! D18   D(3,4,19,20)          -42.3511         estimate D2E/DX2                !
 ! D19   D(5,4,19,20)          140.2            estimate D2E/DX2                !
 ! D20   D(4,5,6,7)             -2.5854         estimate D2E/DX2                !
 ! D21   D(4,5,6,9)            176.2047         estimate D2E/DX2                !
 ! D22   D(24,5,6,7)           178.9886         estimate D2E/DX2                !
 ! D23   D(24,5,6,9)            -2.2213         estimate D2E/DX2                !
 ! D24   D(5,6,7,8)              1.3277         estimate D2E/DX2                !
 ! D25   D(5,6,7,25)          -179.7514         estimate D2E/DX2                !
 ! D26   D(9,6,7,8)           -177.4955         estimate D2E/DX2                !
 ! D27   D(9,6,7,25)             1.4254         estimate D2E/DX2                !
 ! D28   D(5,6,9,10)          -109.9217         estimate D2E/DX2                !
 ! D29   D(5,6,9,18)            14.5383         estimate D2E/DX2                !
 ! D30   D(5,6,9,27)           129.5845         estimate D2E/DX2                !
 ! D31   D(7,6,9,10)            68.8556         estimate D2E/DX2                !
 ! D32   D(7,6,9,18)          -166.6844         estimate D2E/DX2                !
 ! D33   D(7,6,9,27)           -51.6382         estimate D2E/DX2                !
 ! D34   D(6,7,8,3)             -0.8434         estimate D2E/DX2                !
 ! D35   D(6,7,8,26)           178.9773         estimate D2E/DX2                !
 ! D36   D(25,7,8,3)          -179.7809         estimate D2E/DX2                !
 ! D37   D(25,7,8,26)            0.0399         estimate D2E/DX2                !
 ! D38   D(6,9,10,11)           87.4502         estimate D2E/DX2                !
 ! D39   D(6,9,10,28)         -156.3075         estimate D2E/DX2                !
 ! D40   D(6,9,10,29)          -42.5114         estimate D2E/DX2                !
 ! D41   D(18,9,10,11)         -38.3323         estimate D2E/DX2                !
 ! D42   D(18,9,10,28)          77.91           estimate D2E/DX2                !
 ! D43   D(18,9,10,29)        -168.294          estimate D2E/DX2                !
 ! D44   D(27,9,10,11)        -152.8057         estimate D2E/DX2                !
 ! D45   D(27,9,10,28)         -36.5634         estimate D2E/DX2                !
 ! D46   D(27,9,10,29)          77.2326         estimate D2E/DX2                !
 ! D47   D(6,9,18,40)         -104.4016         estimate D2E/DX2                !
 ! D48   D(10,9,18,40)          23.4246         estimate D2E/DX2                !
 ! D49   D(27,9,18,40)         139.6859         estimate D2E/DX2                !
 ! D50   D(9,10,11,12)         141.401          estimate D2E/DX2                !
 ! D51   D(9,10,11,15)         -81.8843         estimate D2E/DX2                !
 ! D52   D(28,10,11,12)         26.8394         estimate D2E/DX2                !
 ! D53   D(28,10,11,15)        163.5541         estimate D2E/DX2                !
 ! D54   D(29,10,11,12)        -88.9631         estimate D2E/DX2                !
 ! D55   D(29,10,11,15)         47.7516         estimate D2E/DX2                !
 ! D56   D(10,11,12,13)         63.8306         estimate D2E/DX2                !
 ! D57   D(10,11,12,30)       -171.1634         estimate D2E/DX2                !
 ! D58   D(10,11,12,31)        -58.1599         estimate D2E/DX2                !
 ! D59   D(15,11,12,13)        -73.7098         estimate D2E/DX2                !
 ! D60   D(15,11,12,30)         51.2962         estimate D2E/DX2                !
 ! D61   D(15,11,12,31)        164.2997         estimate D2E/DX2                !
 ! D62   D(10,11,15,16)        -34.8885         estimate D2E/DX2                !
 ! D63   D(10,11,15,35)         87.5837         estimate D2E/DX2                !
 ! D64   D(10,11,15,36)       -160.1884         estimate D2E/DX2                !
 ! D65   D(12,11,15,16)        101.6299         estimate D2E/DX2                !
 ! D66   D(12,11,15,35)       -135.8979         estimate D2E/DX2                !
 ! D67   D(12,11,15,36)        -23.67           estimate D2E/DX2                !
 ! D68   D(11,12,13,14)         78.3315         estimate D2E/DX2                !
 ! D69   D(11,12,13,32)       -163.594          estimate D2E/DX2                !
 ! D70   D(11,12,13,33)        -43.9766         estimate D2E/DX2                !
 ! D71   D(30,12,13,14)        -46.4522         estimate D2E/DX2                !
 ! D72   D(30,12,13,32)         71.6223         estimate D2E/DX2                !
 ! D73   D(30,12,13,33)       -168.7603         estimate D2E/DX2                !
 ! D74   D(31,12,13,14)       -159.9356         estimate D2E/DX2                !
 ! D75   D(31,12,13,32)        -41.861          estimate D2E/DX2                !
 ! D76   D(31,12,13,33)         77.7563         estimate D2E/DX2                !
 ! D77   D(12,13,14,34)        170.7306         estimate D2E/DX2                !
 ! D78   D(32,13,14,34)         51.6573         estimate D2E/DX2                !
 ! D79   D(33,13,14,34)        -65.303          estimate D2E/DX2                !
 ! D80   D(11,15,16,17)        -55.0916         estimate D2E/DX2                !
 ! D81   D(11,15,16,37)         67.0923         estimate D2E/DX2                !
 ! D82   D(11,15,16,38)       -175.0234         estimate D2E/DX2                !
 ! D83   D(35,15,16,17)       -177.5714         estimate D2E/DX2                !
 ! D84   D(35,15,16,37)        -55.3874         estimate D2E/DX2                !
 ! D85   D(35,15,16,38)         62.4969         estimate D2E/DX2                !
 ! D86   D(36,15,16,17)         70.8419         estimate D2E/DX2                !
 ! D87   D(36,15,16,37)       -166.9742         estimate D2E/DX2                !
 ! D88   D(36,15,16,38)        -49.0899         estimate D2E/DX2                !
 ! D89   D(15,16,17,39)        -35.684          estimate D2E/DX2                !
 ! D90   D(37,16,17,39)       -160.1605         estimate D2E/DX2                !
 ! D91   D(38,16,17,39)         85.0521         estimate D2E/DX2                !
 ! D92   D(4,19,20,41)         -34.8926         estimate D2E/DX2                !
 ! D93   D(4,19,20,42)          90.0754         estimate D2E/DX2                !
 ! D94   D(4,19,20,43)        -153.1084         estimate D2E/DX2                !
 --------------------------------------------------------------------------------
 Trust Radius=3.00D-01 FncErr=1.00D-07 GrdErr=1.00D-06 EigMax=2.50D+02 EigMin=1.00D-04
 Number of steps in this run=    221 maximum allowed number of steps=    258.
 GradGradGradGradGradGradGradGradGradGradGradGradGradGradGradGradGradGrad

                          Input orientation:                          
 ---------------------------------------------------------------------
 Center     Atomic      Atomic             Coordinates (Angstroms)
 Number     Number       Type             X           Y           Z
 ---------------------------------------------------------------------
      1          6           0        1.057510    0.047170    0.066840
      2          8           0        0.617570   -1.293590    0.280590
      3          6           0        0.731450   -2.007620   -0.883040
      4          6           0       -0.345660   -2.174120   -1.757790
      5          6           0       -0.158250   -2.900730   -2.938970
      6          6           0        1.068480   -3.521940   -3.228060
      7          6           0        2.131090   -3.352740   -2.326150
      8          6           0        1.961530   -2.608570   -1.158060
      9          6           0        1.265640   -4.382030   -4.458940
     10          6           0        1.427970   -5.906800   -4.177420
     11          7           0        0.137340   -6.622470   -4.116160
     12          6           0        0.164270   -7.962550   -4.728900
     13          6           0        1.069100   -9.036630   -4.106210
     14          8           0        0.471470   -9.593130   -2.934350
     15          6           0       -0.591840   -6.549710   -2.836530
     16          6           0        0.171660   -6.520540   -1.494820
     17          8           0        1.066560   -7.610700   -1.327520
     18          8           0        0.203160   -4.195380   -5.403450
     19          8           0       -1.598490   -1.642750   -1.603330
     20          6           0       -2.118930   -1.709880   -0.279320
     21          1           0        0.872540    0.609950    0.986740
     22          1           0        0.497540    0.529500   -0.742380
     23          1           0        2.132730    0.081750   -0.139780
     24          1           0       -0.994840   -3.000530   -3.627880
     25          1           0        3.096870   -3.815470   -2.518980
     26          1           0        2.787460   -2.499650   -0.460910
     27          1           0        2.173560   -4.023460   -4.960070
     28          1           0        1.972660   -6.290710   -5.051540
     29          1           0        2.076840   -6.110340   -3.319680
     30          1           0       -0.863420   -8.345090   -4.777310
     31          1           0        0.470780   -7.834240   -5.775180
     32          1           0        1.201170   -9.852590   -4.824830
     33          1           0        2.058130   -8.643410   -3.852550
     34          1           0        1.022370  -10.359020   -2.685150
     35          1           0       -1.212150   -5.646280   -2.871860
     36          1           0       -1.315870   -7.373660   -2.789820
     37          1           0        0.743010   -5.601040   -1.372450
     38          1           0       -0.550730   -6.555890   -0.672210
     39          1           0        0.635340   -8.385160   -1.746460
     40          1           0       -0.345890   -5.000740   -5.306240
     41          1           0       -1.810110   -2.619030    0.248710
     42          1           0       -1.845960   -0.813050    0.283790
     43          1           0       -3.210780   -1.728040   -0.354920
 ---------------------------------------------------------------------
                    Distance matrix (angstroms):
                    1          2          3          4          5
     1  C    0.000000
     2  O    1.427191   0.000000
     3  C    2.287083   1.369979   0.000000
     4  C    3.198795   2.420359   1.397525   0.000000
     5  C    4.382132   3.681082   2.411651   1.399382   0.000000
     6  C    4.857472   4.180848   2.811738   2.445016   1.405113
     7  C    4.293992   3.650471   2.418865   2.801155   2.412662
     8  C    3.061141   2.367512   1.396379   2.423128   2.783966
     9  C    6.335915   5.693997   4.325534   3.842833   2.555782
    10  C    7.321253   6.466244   5.151862   4.788870   3.617500
    11  N    7.926430   6.925243   5.665940   5.057966   3.914652
    12  C    9.378306   8.353173   7.111506   6.526365   5.378651
    13  C    9.996495   8.910812   7.740143   7.389903   6.365383
    14  O   10.113653   8.901660   7.862279   7.556038   6.721963
    15  C    7.393831   6.229439   5.118379   4.513322   3.676078
    16  C    6.808695   5.538224   4.588473   4.384990   3.911193
    17  O    7.783784   6.534025   5.630663   5.633462   5.126475
    18  O    6.975186   6.395345   5.049702   4.204466   2.807205
    19  O    3.563655   2.929503   2.465881   1.369597   2.332539
    20  C    3.646481   2.824045   2.928787   2.354969   3.512282
    21  H    1.094144   2.046246   3.219885   4.094814   5.366433
    22  H    1.095922   2.093927   2.551760   3.008589   4.125718
    23  H    1.095439   2.089014   2.623259   3.721468   4.688202
    24  H    5.210717   4.559567   3.391179   2.145140   1.088320
    25  H    5.075967   4.510477   3.397033   3.889017   3.407190
    26  H    3.123706   2.590912   2.155798   3.406510   3.870252
    27  H    6.563949   6.110467   4.771317   4.474497   3.283703
    28  H    8.197807   7.432300   6.104249   5.759315   4.527217
    29  H    7.100879   6.188093   4.957782   4.878712   3.929652
    30  H    9.878552   8.803371   7.607396   6.889590   5.789457
    31  H    9.828025   8.914819   7.612521   6.988774   5.725320
    32  H   11.043293   9.983105   8.792150   8.411796   7.330269
    33  H    9.585877   8.554409   7.389978   7.212346   6.222969
    34  H   10.763990   9.546806   8.548574   8.350095   7.555420
    35  H    6.797256   5.677299   4.579611   3.748046   2.941641
    36  H    8.298323   7.080456   6.051588   5.389027   4.622708
    37  H    5.837186   4.615453   3.626613   3.616278   3.249297
    38  H    6.836156   5.473989   4.730243   4.518899   4.318847
    39  H    8.635420   7.375609   6.436439   6.288045   5.668407
    40  H    7.504726   6.773765   5.448314   4.536659   3.170050
    41  H    3.919814   2.766123   2.848545   2.523609   3.601291
    42  H    3.035982   2.509962   3.071080   2.876015   4.194396
    43  H    4.641934   3.904982   3.987261   3.221171   4.167788
                    6          7          8          9         10
     6  C    0.000000
     7  C    1.403998   0.000000
     8  C    2.432423   1.395340   0.000000
     9  C    1.514494   2.521356   3.811198   0.000000
    10  C    2.591925   3.231842   4.503281   1.559015   0.000000
    11  N    3.356938   4.227329   5.309371   2.531824   1.477045
    12  C    4.773797   5.558052   6.681777   3.755798   2.475313
    13  C    5.584170   6.050045   7.127971   4.672082   3.151142
    14  O    6.107539   6.485886   7.359318   5.487317   4.006138
    15  C    3.475248   4.230302   4.986937   3.283486   2.508177
    16  C    3.577710   3.816469   4.315154   3.815236   3.025117
    17  O    4.508882   4.501190   5.084387   4.502192   3.340033
    18  O    2.436108   3.727832   4.861396   1.433807   2.435625
    19  O    3.644699   4.166089   3.715483   4.884814   5.828166
    20  C    4.705126   4.995115   4.269658   6.005408   6.737197
    21  H    5.905544   5.316211   4.018076   7.397961   8.333372
    22  H    4.787352   4.499844   3.487627   6.206925   7.354669
    23  H    4.863814   4.071356   2.881671   6.271548   7.256856
    24  H    2.165413   3.404408   3.872179   2.776504   3.823403
    25  H    2.168714   1.088133   2.144227   2.727240   3.147906
    26  H    3.414248   2.153533   1.086297   4.673707   5.222004
    27  H    2.114848   2.718309   4.062284   1.097280   2.171501
    28  H    3.436380   4.010551   5.358868   2.119932   1.099163
    29  H    2.779388   2.931621   4.116830   2.223289   1.094614
    30  H    5.421733   6.316552   7.347583   4.510000   3.399352
    31  H    5.043907   5.893749   7.130762   3.779159   2.680312
    32  H    6.530269   7.025397   8.154703   5.483161   4.004976
    33  H    5.253461   5.506942   6.609758   4.376655   2.826955
    34  H    6.858756   7.102542   7.955093   6.239385   4.713135
    35  H    3.137032   4.090890   4.715616   3.202592   2.956787
    36  H    4.551146   5.316420   6.009166   4.289523   3.406724
    37  H    2.805686   2.809121   3.238152   3.359397   2.903535
    38  H    4.284748   4.493089   4.704130   4.729079   4.077140
    39  H    5.102319   5.281909   5.956004   4.876461   3.560912
    40  H    2.916526   4.210970   5.315455   1.922953   2.289489
    41  H    4.603201   4.764587   4.025466   5.893248   6.394155
    42  H    5.307084   5.392471   4.449697   6.701728   7.521124
    43  H    5.457571   5.921231   5.307839   6.627592   7.320624
                   11         12         13         14         15
    11  N    0.000000
    12  C    1.473767   0.000000
    13  C    2.587749   1.536264   0.000000
    14  O    3.214520   2.444089   1.428324   0.000000
    15  C    1.474602   2.479694   3.248935   3.225307   0.000000
    16  C    2.623545   3.541006   3.735701   3.406309   1.544011
    17  O    3.101058   3.536568   3.123204   2.620317   2.480545
    18  O    2.748129   3.827284   5.086294   5.941730   3.572670
    19  O    5.841663   7.267488   8.249237   8.322553   5.158719
    20  C    6.629150   8.006725   8.859452   8.712347   5.682894
    21  H    8.881892  10.327533  10.910237  10.937945   8.247577
    22  H    7.915984   9.387136  10.156420  10.357270   7.462401
    23  H    8.046101   9.468137  10.000436  10.206503   7.659765
    24  H    3.826055   5.213197   6.397121   6.789214   3.658596
    25  H    4.380531   5.539148   5.821655   6.359765   4.602552
    26  H    6.114052   7.412162   7.679393   7.861245   5.785000
    27  H    3.407819   4.427992   5.203920   6.166188   4.305670
    28  H    2.086480   2.483832   3.041405   4.200243   3.398531
    29  H    2.158314   3.012392   3.193328   3.854286   2.747423
    30  H    2.099062   1.097646   2.159453   2.595388   2.657776
    31  H    2.081326   1.097777   2.142239   3.341259   3.378586
    32  H    3.473848   2.157919   1.095284   2.042963   4.251734
    33  H    2.800558   2.195055   1.094142   2.064594   3.526786
    34  H    4.097911   3.264402   1.941729   0.975797   4.139980
    35  H    2.079027   3.272344   4.268746   4.291399   1.096457
    36  H    2.106011   2.509509   3.191619   2.853335   1.097859
    37  H    2.989666   4.144566   4.402619   4.295352   2.196663
    38  H    3.512644   4.352775   4.535447   3.922626   2.164719
    39  H    2.995089   3.048845   2.486158   1.702095   2.462336
    40  H    2.068770   3.060376   4.441923   5.232971   2.925622
    41  H    6.234756   7.564918   8.272894   7.998472   5.143261
    42  H    7.552642   8.960102   9.767136   9.634143   6.649698
    43  H    7.022270   8.330173   9.263101   9.059363   6.022104
                   16         17         18         19         20
    16  C    0.000000
    17  O    1.420311   0.000000
    18  O    4.548049   5.387307   0.000000
    19  O    5.190187   6.541788   4.919632   0.000000
    20  C    5.465043   6.787175   6.150327   1.424207   0.000000
    21  H    7.582431   8.542396   8.023328   4.229552   3.991668
    22  H    7.097565   8.181016   6.643548   3.138988   3.474933
    23  H    7.019413   7.856286   7.051475   4.363242   4.615845
    24  H    4.277983   5.549297   2.452656   2.511327   3.760613
    25  H    4.113777   4.466039   4.103420   5.254097   6.054268
    26  H    4.907029   5.462174   5.829478   4.612587   4.972864
    27  H    4.717093   5.223903   2.026973   5.582459   6.759256
    28  H    3.993329   4.053605   2.765028   6.800500   7.778123
    29  H    2.669848   2.690808   3.394090   6.034341   6.797965
    30  H    3.895525   4.020597   4.330097   7.452237   8.113830
    31  H    4.487400   4.492950   3.667575   7.747307   8.626637
    32  H    4.821972   4.156365   5.773634   9.252980   9.898912
    33  H    3.691102   2.902667   5.062724   8.212131   8.848143
    34  H    4.107861   3.065677   6.786068   9.165839   9.511225
    35  H    2.139042   3.381782   3.243017   4.217426   4.799871
    36  H    2.148856   2.805438   4.386340   5.859263   6.247073
    37  H    1.089447   2.036035   4.303055   4.604779   4.952450
    38  H    1.095347   2.039040   5.340879   5.109181   5.108564
    39  H    1.937816   0.980433   5.578047   7.104265   7.368709
    40  H    4.135767   4.963579   0.979546   5.153314   6.264452
    41  H    4.710530   5.972981   6.203632   2.104271   1.095782
    42  H    6.309492   7.568827   6.927030   2.076262   1.093576
    43  H    5.975645   7.338070   6.574984   2.040902   1.094615
                   21         22         23         24         25
    21  H    0.000000
    22  H    1.771145   0.000000
    23  H    1.770910   1.799292   0.000000
    24  H    6.149585   4.797335   5.607940   0.000000
    25  H    6.068118   5.365779   4.666742   4.316929   0.000000
    26  H    3.928387   3.807717   2.682428   4.958465   2.462269
    27  H    7.650209   6.428639   6.331636   3.586067   2.618145
    28  H    9.235269   8.201226   8.047314   4.653832   3.715444
    29  H    8.072044   7.295488   6.961097   4.381909   2.635908
    30  H   10.790300   9.843334  10.074484   5.468344   6.426617
    31  H   10.825402   9.761247   9.858129   5.488505   5.800836
    32  H   11.972764  11.178072  11.023094   7.294236   6.734793
    33  H   10.509473   9.810753   9.482544   6.419751   5.115310
    34  H   11.568212  11.072925  10.803772   7.687994   6.866528
    35  H    7.640363   6.752628   7.173759   2.760214   4.695108
    36  H    9.098878   8.363038   8.631262   4.464266   5.675063
    37  H    6.645220   6.167720   5.978704   3.856130   3.169140
    38  H    7.491801   7.162859   7.179325   4.644761   4.921935
    39  H    9.404183   8.972086   8.747123   5.932240   5.247665
    40  H    8.518569   7.219678   7.659476   2.690515   4.585442
    41  H    4.262348   4.027499   4.794906   3.979718   5.759343
    42  H    3.147906   2.889197   4.100006   4.561868   6.426633
    43  H    4.892826   4.358698   5.645770   4.152335   6.987630
                   26         27         28         29         30
    26  H    0.000000
    27  H    4.789709   0.000000
    28  H    6.009153   2.277971   0.000000
    29  H    4.659896   2.656182   1.744341   0.000000
    30  H    8.131999   5.285181   3.512695   3.970381   0.000000
    31  H    7.878218   4.252753   2.271956   3.403049   1.742642
    32  H    8.696312   5.911226   3.651518   4.127555   2.556823
    33  H    7.055560   4.752248   2.641984   2.588580   3.078901
    34  H    8.356583   6.829335   4.801458   4.423326   3.462550
    35  H    5.631238   4.296184   3.912711   3.351619   3.322037
    36  H    6.783591   5.301881   4.135527   3.658854   2.257987
    37  H    3.824827   4.172080   3.939973   2.414579   4.658701
    38  H    5.257494   5.676328   5.061260   3.756559   4.488971
    39  H    6.397147   5.631859   4.135057   3.118934   3.381411
    40  H    6.288923   2.724434   2.665440   3.323741   3.425242
    41  H    4.653543   6.706224   7.475509   6.327008   7.677556
    42  H    4.986760   7.345838   8.547068   7.512299   9.127527
    43  H    6.048595   7.447649   8.351302   7.480193   8.297770
                   31         32         33         34         35
    31  H    0.000000
    32  H    2.347418   0.000000
    33  H    2.621248   1.772519   0.000000
    34  H    4.028281   2.206053   2.319254   0.000000
    35  H    4.006082   5.227930   4.543047   5.218990   0.000000
    36  H    3.509505   4.076990   3.758395   3.793507   1.732435
    37  H    4.944221   5.495864   4.139620   4.943642   2.464331
    38  H    5.358914   5.584052   4.612857   4.581525   2.470491
    39  H    4.069543   3.456859   2.554729   2.219697   3.490159
    40  H    2.985896   5.115232   4.600171   6.119919   2.663331
    41  H    8.287830   9.334506   8.250865   8.748595   4.388594
    42  H    9.559054  10.821104   9.678108  10.400359   5.806889
    43  H    8.956494  10.269066   9.371082   9.891580   5.067752
                   36         37         38         39         40
    36  H    0.000000
    37  H    3.064328   0.000000
    38  H    2.395508   1.753807   0.000000
    39  H    2.432890   2.811192   2.430433   0.000000
    40  H    3.592211   4.125623   4.892309   5.008907   0.000000
    41  H    5.664225   4.247230   4.234737   6.573369   6.218838
    42  H    7.264274   5.689529   5.964207   8.222871   7.143906
    43  H    6.433696   5.627429   5.521293   7.813211   6.590427
                   41         42         43
    41  H    0.000000
    42  H    1.806676   0.000000
    43  H    1.766383   1.762921   0.000000
 Stoichiometry    C14H23NO5
 Framework group  C1[X(C14H23NO5)]
 Deg. of freedom   123
 Full point group                 C1      NOp   1
 Largest Abelian subgroup         C1      NOp   1
 Largest concise Abelian subgroup C1      NOp   1
                         Standard orientation:                         
 ---------------------------------------------------------------------
 Center     Atomic      Atomic             Coordinates (Angstroms)
 Number     Number       Type             X           Y           Z
 ---------------------------------------------------------------------
      1          6           0        5.198150   -0.261479   -1.074450
      2          8           0        4.093940   -1.074803   -0.679358
      3          6           0        2.963807   -0.305829   -0.588146
      4          6           0        2.534935    0.238715    0.625368
      5          6           0        1.380969    1.030015    0.647251
      6          6           0        0.609901    1.230052   -0.510238
      7          6           0        1.053267    0.659926   -1.714229
      8          6           0        2.216664   -0.109555   -1.751386
      9          6           0       -0.686561    2.012638   -0.489319
     10          6           0       -1.974155    1.159058   -0.699151
     11          7           0       -2.509429    0.603673    0.560489
     12          6           0       -3.981015    0.606968    0.640583
     13          6           0       -4.772757   -0.248902   -0.359786
     14          8           0       -4.762884   -1.624878    0.023234
     15          6           0       -1.872893   -0.631340    1.054466
     16          6           0       -1.357731   -1.701529    0.067921
     17          8           0       -2.347783   -2.156895   -0.842970
     18          8           0       -0.822795    2.767313    0.722170
     19          8           0        3.171469    0.118402    1.832075
     20          6           0        3.683520   -1.180606    2.112700
     21          1           0        6.096819   -0.885250   -1.053080
     22          1           0        5.350280    0.573612   -0.381251
     23          1           0        5.069114    0.109943   -2.096888
     24          1           0        1.070932    1.473618    1.591461
     25          1           0        0.484302    0.797037   -2.631569
     26          1           0        2.539113   -0.558507   -2.686539
     27          1           0       -0.627517    2.754847   -1.295336
     28          1           0       -2.716965    1.872744   -1.082614
     29          1           0       -1.858860    0.409238   -1.488236
     30          1           0       -4.275821    0.328970    1.660698
     31          1           0       -4.309555    1.647695    0.522002
     32          1           0       -5.816949    0.081687   -0.364425
     33          1           0       -4.382356   -0.156897   -1.377758
     34          1           0       -5.399575   -2.075389   -0.563147
     35          1           0       -1.019274   -0.327315    1.671817
     36          1           0       -2.553293   -1.127666    1.758748
     37          1           0       -0.510857   -1.342058   -0.515587
     38          1           0       -1.005254   -2.569739    0.635156
     39          1           0       -3.192529   -2.168187   -0.345449
     40          1           0       -1.478320    2.261261    1.245343
     41          1           0        3.046435   -1.978930    1.715788
     42          1           0        4.709502   -1.273675    1.745810
     43          1           0        3.714459   -1.294649    3.200918
 ---------------------------------------------------------------------
 Rotational constants (GHZ):           0.6272669           0.1710920           0.1627555
 Standard basis: 6-31G(d) (6D, 7F)
 There are   346 symmetry adapted cartesian basis functions of A   symmetry.
 There are   346 symmetry adapted basis functions of A   symmetry.
   346 basis functions,   652 primitive gaussians,   346 cartesian basis functions
    77 alpha electrons       77 beta electrons
       nuclear repulsion energy      1699.9832272108 Hartrees.
 NAtoms=   43 NActive=   43 NUniq=   43 SFac= 1.00D+00 NAtFMM=   60 NAOKFM=F Big=F
 Integral buffers will be    131072 words long.
 Raffenetti 2 integral format.
 Two-electron integral symmetry is turned on.
 Nuclear repulsion after empirical dispersion term =     1699.8989381840 Hartrees.
 One-electron integrals computed using PRISM.
 NBasis=   346 RedAO= T EigKep=  3.67D-04  NBF=   346
 NBsUse=   346 1.00D-06 EigRej= -1.00D+00 NBFU=   346
 ExpMin= 1.61D-01 ExpMax= 5.48D+03 ExpMxC= 8.25D+02 IAcc=3 IRadAn=         5 AccDes= 0.00D+00
 Harris functional with IExCor=  402 and IRadAn=       5 diagonalized for initial guess.
 HarFok:  IExCor=  402 AccDes= 0.00D+00 IRadAn=         5 IDoV= 1 UseB2=F ITyADJ=14
 ICtDFT=  3500011 ScaDFX=  1.000000  1.000000  1.000000  1.000000
 FoFCou: FMM=F IPFlag=           0 FMFlag=      100000 FMFlg1=           0
         NFxFlg=           0 DoJE=T BraDBF=F KetDBF=T FulRan=T
         wScrn=  0.000000 ICntrl=       500 IOpCl=  0 I1Cent=   200000004 NGrid=           0
         NMat0=    1 NMatS0=      1 NMatT0=    0 NMatD0=    1 NMtDS0=    0 NMtDT0=    0
 Petite list used in FoFCou.
 Requested convergence on RMS density matrix=1.00D-08 within  32 cycles.
 Requested convergence on MAX density matrix=1.00D-06.
 Requested convergence on             energy=1.00D-06.
 No special actions if energy rises.
 Integral accuracy reduced to 1.0D-05 until final iterations.
 Initial convergence to 1.0D-05 achieved.  Increase integral accuracy.
 SCF Done:  E(RB3LYP) =  -978.197473851     A.U. after   13 cycles
            NFock= 13  Conv=0.99D-08     -V/T= 2.0091
 QCSCF skips out because SCF is already converged.

 **********************************************************************

            Population analysis using the SCF density.

 **********************************************************************

 Orbital symmetries:
       Occupied  (A) (A) (A) (A) (A) (A) (A) (A) (A) (A) (A) (A)
                 (A) (A) (A) (A) (A) (A) (A) (A) (A) (A) (A) (A)
                 (A) (A) (A) (A) (A) (A) (A) (A) (A) (A) (A) (A)
                 (A) (A) (A) (A) (A) (A) (A) (A) (A) (A) (A) (A)
                 (A) (A) (A) (A) (A) (A) (A) (A) (A) (A) (A) (A)
                 (A) (A) (A) (A) (A) (A) (A) (A) (A) (A) (A) (A)
                 (A) (A) (A) (A) (A)
       Virtual   (A) (A) (A) (A) (A) (A) (A) (A) (A) (A) (A) (A)
                 (A) (A) (A) (A) (A) (A) (A) (A) (A) (A) (A) (A)
                 (A) (A) (A) (A) (A) (A) (A) (A) (A) (A) (A) (A)
                 (A) (A) (A) (A) (A) (A) (A) (A) (A) (A) (A) (A)
                 (A) (A) (A) (A) (A) (A) (A) (A) (A) (A) (A) (A)
                 (A) (A) (A) (A) (A) (A) (A) (A) (A) (A) (A) (A)
                 (A) (A) (A) (A) (A) (A) (A) (A) (A) (A) (A) (A)
                 (A) (A) (A) (A) (A) (A) (A) (A) (A) (A) (A) (A)
                 (A) (A) (A) (A) (A) (A) (A) (A) (A) (A) (A) (A)
                 (A) (A) (A) (A) (A) (A) (A) (A) (A) (A) (A) (A)
                 (A) (A) (A) (A) (A) (A) (A) (A) (A) (A) (A) (A)
                 (A) (A) (A) (A) (A) (A) (A) (A) (A) (A) (A) (A)
                 (A) (A) (A) (A) (A) (A) (A) (A) (A) (A) (A) (A)
                 (A) (A) (A) (A) (A) (A) (A) (A) (A) (A) (A) (A)
                 (A) (A) (A) (A) (A) (A) (A) (A) (A) (A) (A) (A)
                 (A) (A) (A) (A) (A) (A) (A) (A) (A) (A) (A) (A)
                 (A) (A) (A) (A) (A) (A) (A) (A) (A) (A) (A) (A)
                 (A) (A) (A) (A) (A) (A) (A) (A) (A) (A) (A) (A)
                 (A) (A) (A) (A) (A) (A) (A) (A) (A) (A) (A) (A)
                 (A) (A) (A) (A) (A) (A) (A) (A) (A) (A) (A) (A)
                 (A) (A) (A) (A) (A) (A) (A) (A) (A) (A) (A) (A)
                 (A) (A) (A) (A) (A) (A) (A) (A) (A) (A) (A) (A)
                 (A) (A) (A) (A) (A)
 The electronic state is 1-A.
 Alpha  occ. eigenvalues --  -19.17872 -19.16265 -19.15897 -19.12423 -19.10653
 Alpha  occ. eigenvalues --  -14.34139 -10.24784 -10.23490 -10.23232 -10.22993
 Alpha  occ. eigenvalues --  -10.22950 -10.22543 -10.22306 -10.21321 -10.20986
 Alpha  occ. eigenvalues --  -10.20541 -10.18380 -10.18258 -10.17889 -10.17391
 Alpha  occ. eigenvalues --   -1.05902  -1.05027  -1.04003  -1.00117  -0.98429
 Alpha  occ. eigenvalues --   -0.91780  -0.84160  -0.76697  -0.75504  -0.74352
 Alpha  occ. eigenvalues --   -0.73204  -0.70114  -0.68651  -0.66933  -0.63316
 Alpha  occ. eigenvalues --   -0.62535  -0.60208  -0.57898  -0.55723  -0.54198
 Alpha  occ. eigenvalues --   -0.51926  -0.51067  -0.49414  -0.49101  -0.48224
 Alpha  occ. eigenvalues --   -0.47464  -0.46725  -0.46434  -0.44846  -0.44639
 Alpha  occ. eigenvalues --   -0.44051  -0.43351  -0.42962  -0.42863  -0.42067
 Alpha  occ. eigenvalues --   -0.41644  -0.40621  -0.39561  -0.39079  -0.38303
 Alpha  occ. eigenvalues --   -0.36506  -0.36058  -0.35619  -0.34929  -0.34654
 Alpha  occ. eigenvalues --   -0.34036  -0.32986  -0.31613  -0.31223  -0.29549
 Alpha  occ. eigenvalues --   -0.28630  -0.26333  -0.25733  -0.24672  -0.23180
 Alpha  occ. eigenvalues --   -0.21645  -0.21206
 Alpha virt. eigenvalues --    0.00672   0.01243   0.04490   0.08258   0.09122
 Alpha virt. eigenvalues --    0.10722   0.10985   0.11323   0.11534   0.12271
 Alpha virt. eigenvalues --    0.13684   0.13916   0.14610   0.15042   0.15111
 Alpha virt. eigenvalues --    0.15759   0.16190   0.16581   0.16767   0.17577
 Alpha virt. eigenvalues --    0.17753   0.17924   0.18431   0.18939   0.19504
 Alpha virt. eigenvalues --    0.19726   0.20002   0.20526   0.21842   0.22047
 Alpha virt. eigenvalues --    0.22466   0.23568   0.24402   0.25876   0.26950
 Alpha virt. eigenvalues --    0.27908   0.28463   0.29721   0.30372   0.32777
 Alpha virt. eigenvalues --    0.35821   0.36707   0.39035   0.40428   0.49003
 Alpha virt. eigenvalues --    0.49599   0.50605   0.51277   0.52156   0.52383
 Alpha virt. eigenvalues --    0.52671   0.52994   0.53281   0.54178   0.54660
 Alpha virt. eigenvalues --    0.55303   0.56052   0.57602   0.58338   0.59253
 Alpha virt. eigenvalues --    0.59715   0.60802   0.61530   0.61673   0.62909
 Alpha virt. eigenvalues --    0.63893   0.64601   0.65500   0.66421   0.67112
 Alpha virt. eigenvalues --    0.67942   0.68991   0.71699   0.72239   0.73028
 Alpha virt. eigenvalues --    0.73543   0.74428   0.77663   0.78107   0.78519
 Alpha virt. eigenvalues --    0.80474   0.80797   0.81636   0.82619   0.82855
 Alpha virt. eigenvalues --    0.83962   0.84474   0.85494   0.85678   0.85889
 Alpha virt. eigenvalues --    0.86213   0.86659   0.87928   0.88389   0.89287
 Alpha virt. eigenvalues --    0.89394   0.89753   0.90463   0.91354   0.91790
 Alpha virt. eigenvalues --    0.92770   0.93188   0.94327   0.95247   0.96025
 Alpha virt. eigenvalues --    0.96541   0.96958   0.97834   0.98671   0.99308
 Alpha virt. eigenvalues --    1.00297   1.01165   1.02900   1.04230   1.04831
 Alpha virt. eigenvalues --    1.07313   1.08014   1.09336   1.09907   1.10156
 Alpha virt. eigenvalues --    1.12182   1.13157   1.14320   1.14913   1.15674
 Alpha virt. eigenvalues --    1.18740   1.20707   1.21469   1.22684   1.23412
 Alpha virt. eigenvalues --    1.25404   1.27126   1.27561   1.28978   1.32718
 Alpha virt. eigenvalues --    1.33074   1.34692   1.36529   1.40395   1.40703
 Alpha virt. eigenvalues --    1.41776   1.43676   1.45160   1.45618   1.48417
 Alpha virt. eigenvalues --    1.49860   1.50426   1.51513   1.52567   1.53636
 Alpha virt. eigenvalues --    1.55180   1.58095   1.58759   1.59288   1.60568
 Alpha virt. eigenvalues --    1.63743   1.66761   1.68188   1.68522   1.70377
 Alpha virt. eigenvalues --    1.72680   1.72977   1.74764   1.76154   1.77031
 Alpha virt. eigenvalues --    1.78980   1.80346   1.81626   1.84207   1.85079
 Alpha virt. eigenvalues --    1.85402   1.86543   1.88759   1.89483   1.90302
 Alpha virt. eigenvalues --    1.91606   1.93533   1.93963   1.95171   1.97149
 Alpha virt. eigenvalues --    1.97630   1.99910   2.01431   2.03082   2.03884
 Alpha virt. eigenvalues --    2.04803   2.05281   2.06474   2.07259   2.08173
 Alpha virt. eigenvalues --    2.09180   2.10061   2.12039   2.13146   2.13924
 Alpha virt. eigenvalues --    2.15695   2.18316   2.19022   2.20316   2.22575
 Alpha virt. eigenvalues --    2.23553   2.24567   2.25781   2.27390   2.28430
 Alpha virt. eigenvalues --    2.29329   2.31804   2.32473   2.32537   2.33682
 Alpha virt. eigenvalues --    2.35792   2.36183   2.37241   2.38151   2.39584
 Alpha virt. eigenvalues --    2.41177   2.41936   2.43833   2.45670   2.48449
 Alpha virt. eigenvalues --    2.49470   2.50277   2.53857   2.55487   2.57200
 Alpha virt. eigenvalues --    2.58986   2.61858   2.62413   2.64755   2.66266
 Alpha virt. eigenvalues --    2.67700   2.70416   2.70772   2.76335   2.77552
 Alpha virt. eigenvalues --    2.78623   2.80132   2.81717   2.82796   2.86038
 Alpha virt. eigenvalues --    2.88235   2.89408   2.90267   2.95570   2.98812
 Alpha virt. eigenvalues --    2.99667   3.09072   3.26289   3.43829   3.80235
 Alpha virt. eigenvalues --    3.88335   3.92675   3.99711   4.04079   4.12858
 Alpha virt. eigenvalues --    4.15872   4.21568   4.23433   4.25182   4.29427
 Alpha virt. eigenvalues --    4.32249   4.34827   4.38584   4.41694   4.48406
 Alpha virt. eigenvalues --    4.51642   4.57632   4.64127   4.93975
          Condensed to atoms (all electrons):
               1          2          3          4          5          6
     1  C    4.914371   0.255894  -0.049709  -0.005899  -0.000065   0.000045
     2  O    0.255894   8.262782   0.225840  -0.062699   0.004548   0.000024
     3  C   -0.049709   0.225840   4.795630   0.413888  -0.051978  -0.028592
     4  C   -0.005899  -0.062699   0.413888   4.767247   0.445689  -0.015447
     5  C   -0.000065   0.004548  -0.051978   0.445689   5.182732   0.504588
     6  C    0.000045   0.000024  -0.028592  -0.015447   0.504588   4.863644
     7  C   -0.000081   0.005271  -0.017757  -0.039915  -0.041883   0.497811
     8  C   -0.006979  -0.061239   0.497967  -0.039782  -0.043960  -0.017423
     9  C    0.000000   0.000000   0.000250   0.005888  -0.039870   0.300458
    10  C    0.000000   0.000000   0.000036  -0.000134  -0.000277  -0.033944
    11  N    0.000000  -0.000000  -0.000001   0.000025   0.001141  -0.006629
    12  C    0.000000   0.000000   0.000000   0.000000  -0.000003  -0.000108
    13  C    0.000000   0.000000   0.000000  -0.000000   0.000000  -0.000008
    14  O   -0.000000   0.000000  -0.000000  -0.000000  -0.000000   0.000000
    15  C   -0.000000   0.000000  -0.000001  -0.000271  -0.002129   0.002866
    16  C    0.000000  -0.000000   0.000127   0.000344   0.000304  -0.003118
    17  O    0.000000   0.000000   0.000001   0.000000   0.000007  -0.000011
    18  O   -0.000000  -0.000000  -0.000008   0.001309   0.001700  -0.063538
    19  O    0.000362  -0.002889  -0.056443   0.254999  -0.061375   0.003677
    20  C   -0.000800   0.002607  -0.013266  -0.040523   0.002699  -0.000101
    21  H    0.373323  -0.030249   0.005337   0.000039   0.000008  -0.000001
    22  H    0.364936  -0.038549  -0.001301   0.004476  -0.000650  -0.000008
    23  H    0.365989  -0.040092  -0.001680  -0.000441   0.000017   0.000002
    24  H   -0.000000  -0.000055   0.006029  -0.036383   0.334336  -0.039380
    25  H   -0.000006  -0.000075   0.003630   0.000535   0.005684  -0.049817
    26  H    0.000222  -0.002360  -0.034840   0.005332   0.000336   0.003492
    27  H   -0.000000  -0.000000  -0.000003   0.000014   0.003386  -0.070061
    28  H   -0.000000  -0.000000  -0.000000   0.000002  -0.000105   0.005532
    29  H   -0.000000  -0.000000  -0.000004  -0.000027  -0.000183  -0.002335
    30  H   -0.000000   0.000000  -0.000000   0.000000   0.000001   0.000004
    31  H    0.000000  -0.000000   0.000000  -0.000000  -0.000001   0.000014
    32  H    0.000000   0.000000   0.000000  -0.000000  -0.000000   0.000000
    33  H   -0.000000   0.000000  -0.000000   0.000000   0.000000   0.000002
    34  H    0.000000  -0.000000  -0.000000   0.000000   0.000000  -0.000000
    35  H    0.000000  -0.000000   0.000054   0.000251   0.004624  -0.000915
    36  H   -0.000000  -0.000000  -0.000001   0.000004   0.000099   0.000036
    37  H    0.000000  -0.000007  -0.000034  -0.000030  -0.000051   0.003616
    38  H   -0.000000   0.000000  -0.000007  -0.000024   0.000016   0.000030
    39  H    0.000000  -0.000000   0.000000   0.000000   0.000000  -0.000000
    40  H   -0.000000  -0.000000  -0.000002  -0.000022   0.000717   0.000417
    41  H    0.000365  -0.001106   0.004304   0.000781   0.001640  -0.000046
    42  H   -0.000063   0.002322   0.002219  -0.003463  -0.000225   0.000016
    43  H   -0.000014   0.000636   0.000162   0.002799  -0.000055  -0.000002
               7          8          9         10         11         12
     1  C   -0.000081  -0.006979   0.000000   0.000000   0.000000   0.000000
     2  O    0.005271  -0.061239   0.000000   0.000000  -0.000000   0.000000
     3  C   -0.017757   0.497967   0.000250   0.000036  -0.000001   0.000000
     4  C   -0.039915  -0.039782   0.005888  -0.000134   0.000025   0.000000
     5  C   -0.041883  -0.043960  -0.039870  -0.000277   0.001141  -0.000003
     6  C    0.497811  -0.017423   0.300458  -0.033944  -0.006629  -0.000108
     7  C    5.059206   0.467683  -0.054338  -0.004847   0.000116   0.000000
     8  C    0.467683   5.046193   0.004852  -0.000046  -0.000001  -0.000000
     9  C   -0.054338   0.004852   4.937307   0.302557  -0.049477   0.002875
    10  C   -0.004847  -0.000046   0.302557   5.113884   0.287102  -0.045165
    11  N    0.000116  -0.000001  -0.049477   0.287102   6.856986   0.344813
    12  C    0.000000  -0.000000   0.002875  -0.045165   0.344813   4.948687
    13  C   -0.000001   0.000000  -0.000183  -0.008517  -0.052507   0.327615
    14  O    0.000000   0.000000  -0.000002  -0.000265   0.001465  -0.042781
    15  C   -0.000038   0.000030  -0.000647  -0.048466   0.291765  -0.046489
    16  C   -0.002885  -0.000704  -0.002024  -0.001750  -0.045981   0.000880
    17  O    0.000028  -0.000004   0.000245  -0.004153   0.003921  -0.003168
    18  O    0.002126  -0.000056   0.278127  -0.034073  -0.022133  -0.000293
    19  O    0.000141   0.004259  -0.000067   0.000000   0.000000  -0.000000
    20  C   -0.000006   0.000158   0.000002  -0.000000  -0.000000  -0.000000
    21  H    0.000010  -0.000021  -0.000000  -0.000000   0.000000  -0.000000
    22  H    0.000102   0.000334  -0.000000  -0.000000   0.000000  -0.000000
    23  H   -0.000788   0.006468  -0.000000  -0.000000   0.000000  -0.000000
    24  H    0.006943  -0.000177  -0.012249   0.000450   0.000020   0.000004
    25  H    0.351418  -0.037048  -0.006847   0.001342   0.000039   0.000001
    26  H   -0.038447   0.347466  -0.000141   0.000000   0.000000   0.000000
    27  H   -0.002013  -0.000083   0.379146  -0.045292   0.004181  -0.000110
    28  H    0.000146   0.000006  -0.030764   0.358250  -0.042695  -0.005855
    29  H    0.002777  -0.000023  -0.039946   0.344480  -0.032722  -0.002086
    30  H    0.000000   0.000000  -0.000052   0.005615  -0.041227   0.371673
    31  H   -0.000000   0.000000   0.000466  -0.003270  -0.043517   0.370303
    32  H    0.000000  -0.000000   0.000009   0.000135   0.004395  -0.024697
    33  H   -0.000000  -0.000000   0.000021   0.004256  -0.007174  -0.040087
    34  H   -0.000000  -0.000000  -0.000000   0.000006  -0.000177   0.005406
    35  H   -0.000030  -0.000062   0.003755  -0.000747  -0.051478   0.003337
    36  H   -0.000002  -0.000001  -0.000179   0.004606  -0.040950  -0.005394
    37  H    0.005901   0.002249  -0.001971   0.004033  -0.005190   0.000171
    38  H    0.000059   0.000013   0.000094  -0.000142   0.004489  -0.000333
    39  H   -0.000005  -0.000000  -0.000024   0.000478  -0.000492   0.000023
    40  H   -0.000104   0.000008  -0.044279  -0.022959   0.060686  -0.000825
    41  H   -0.000041  -0.000403   0.000001  -0.000000   0.000000  -0.000000
    42  H    0.000003  -0.000073  -0.000000   0.000000  -0.000000  -0.000000
    43  H   -0.000002   0.000024  -0.000000  -0.000000   0.000000   0.000000
              13         14         15         16         17         18
     1  C    0.000000  -0.000000  -0.000000   0.000000   0.000000  -0.000000
     2  O    0.000000   0.000000   0.000000  -0.000000   0.000000  -0.000000
     3  C    0.000000  -0.000000  -0.000001   0.000127   0.000001  -0.000008
     4  C   -0.000000  -0.000000  -0.000271   0.000344   0.000000   0.001309
     5  C    0.000000  -0.000000  -0.002129   0.000304   0.000007   0.001700
     6  C   -0.000008   0.000000   0.002866  -0.003118  -0.000011  -0.063538
     7  C   -0.000001   0.000000  -0.000038  -0.002885   0.000028   0.002126
     8  C    0.000000   0.000000   0.000030  -0.000704  -0.000004  -0.000056
     9  C   -0.000183  -0.000002  -0.000647  -0.002024   0.000245   0.278127
    10  C   -0.008517  -0.000265  -0.048466  -0.001750  -0.004153  -0.034073
    11  N   -0.052507   0.001465   0.291765  -0.045981   0.003921  -0.022133
    12  C    0.327615  -0.042781  -0.046489   0.000880  -0.003168  -0.000293
    13  C    4.981117   0.207311  -0.004758   0.002297   0.011798  -0.000012
    14  O    0.207311   8.265583   0.001439  -0.000028  -0.035258   0.000000
    15  C   -0.004758   0.001439   5.066076   0.334357  -0.042248  -0.000686
    16  C    0.002297  -0.000028   0.334357   4.861727   0.261621  -0.000027
    17  O    0.011798  -0.035258  -0.042248   0.261621   8.341056  -0.000000
    18  O   -0.000012   0.000000  -0.000686  -0.000027  -0.000000   8.285291
    19  O   -0.000000   0.000000   0.000004  -0.000006  -0.000000  -0.000001
    20  C   -0.000000   0.000000   0.000003  -0.000009   0.000000  -0.000000
    21  H   -0.000000  -0.000000  -0.000000  -0.000000  -0.000000   0.000000
    22  H   -0.000000   0.000000  -0.000000  -0.000000  -0.000000   0.000000
    23  H   -0.000000  -0.000000   0.000000  -0.000000  -0.000000   0.000000
    24  H   -0.000000   0.000000  -0.000527  -0.000003   0.000000   0.018314
    25  H    0.000000   0.000000   0.000005  -0.000007  -0.000010   0.000038
    26  H    0.000000  -0.000000  -0.000000  -0.000007  -0.000000   0.000000
    27  H    0.000008  -0.000000  -0.000139   0.000012  -0.000001  -0.043251
    28  H   -0.001844   0.000027   0.006215  -0.000165   0.000029   0.000835
    29  H    0.003625   0.000041  -0.011341   0.005796   0.011480   0.002137
    30  H   -0.048784   0.001881  -0.005978  -0.000390   0.000085   0.000019
    31  H   -0.049640   0.002790   0.005335  -0.000256  -0.000005   0.000548
    32  H    0.345670  -0.035433  -0.000064  -0.000074   0.000116   0.000000
    33  H    0.370185  -0.040651  -0.000078  -0.000352   0.004414  -0.000001
    34  H   -0.018517   0.234013  -0.000063   0.000068   0.002053  -0.000000
    35  H   -0.000234   0.000049   0.344168  -0.042458   0.003792   0.002118
    36  H   -0.001514   0.001307   0.369443  -0.035507  -0.002162  -0.000008
    37  H   -0.000115  -0.000096  -0.037277   0.378753  -0.041916   0.000016
    38  H    0.000157  -0.000002  -0.038479   0.353515  -0.041967   0.000001
    39  H   -0.011763   0.060983  -0.001415  -0.029731   0.205518   0.000000
    40  H    0.000372  -0.000001  -0.001475   0.000494  -0.000003   0.222229
    41  H    0.000000  -0.000000  -0.000010   0.000031   0.000000  -0.000000
    42  H   -0.000000   0.000000   0.000000  -0.000000  -0.000000   0.000000
    43  H   -0.000000  -0.000000  -0.000000   0.000000   0.000000   0.000000
              19         20         21         22         23         24
     1  C    0.000362  -0.000800   0.373323   0.364936   0.365989  -0.000000
     2  O   -0.002889   0.002607  -0.030249  -0.038549  -0.040092  -0.000055
     3  C   -0.056443  -0.013266   0.005337  -0.001301  -0.001680   0.006029
     4  C    0.254999  -0.040523   0.000039   0.004476  -0.000441  -0.036383
     5  C   -0.061375   0.002699   0.000008  -0.000650   0.000017   0.334336
     6  C    0.003677  -0.000101  -0.000001  -0.000008   0.000002  -0.039380
     7  C    0.000141  -0.000006   0.000010   0.000102  -0.000788   0.006943
     8  C    0.004259   0.000158  -0.000021   0.000334   0.006468  -0.000177
     9  C   -0.000067   0.000002  -0.000000  -0.000000  -0.000000  -0.012249
    10  C    0.000000  -0.000000  -0.000000  -0.000000  -0.000000   0.000450
    11  N    0.000000  -0.000000   0.000000   0.000000   0.000000   0.000020
    12  C   -0.000000  -0.000000  -0.000000  -0.000000  -0.000000   0.000004
    13  C   -0.000000  -0.000000  -0.000000  -0.000000  -0.000000  -0.000000
    14  O    0.000000   0.000000  -0.000000   0.000000  -0.000000   0.000000
    15  C    0.000004   0.000003  -0.000000  -0.000000   0.000000  -0.000527
    16  C   -0.000006  -0.000009  -0.000000  -0.000000  -0.000000  -0.000003
    17  O   -0.000000   0.000000  -0.000000  -0.000000  -0.000000   0.000000
    18  O   -0.000001  -0.000000   0.000000   0.000000   0.000000   0.018314
    19  O    8.232871   0.247330  -0.000056   0.001650   0.000018   0.000766
    20  C    0.247330   4.896668  -0.000007  -0.000290   0.000088  -0.000221
    21  H   -0.000056  -0.000007   0.563994  -0.033153  -0.034957  -0.000000
    22  H    0.001650  -0.000290  -0.033153   0.591960  -0.043981   0.000011
    23  H    0.000018   0.000088  -0.034957  -0.043981   0.602587  -0.000000
    24  H    0.000766  -0.000221  -0.000000   0.000011  -0.000000   0.571291
    25  H    0.000002   0.000000  -0.000000  -0.000001   0.000017  -0.000146
    26  H   -0.000040  -0.000004  -0.000098   0.000266   0.000899   0.000016
    27  H    0.000000  -0.000000   0.000000   0.000000   0.000000   0.000465
    28  H   -0.000000   0.000000   0.000000   0.000000   0.000000  -0.000021
    29  H    0.000000   0.000000   0.000000   0.000000   0.000000  -0.000045
    30  H   -0.000000   0.000000   0.000000   0.000000   0.000000  -0.000000
    31  H    0.000000  -0.000000  -0.000000  -0.000000  -0.000000  -0.000000
    32  H    0.000000   0.000000  -0.000000  -0.000000  -0.000000   0.000000
    33  H   -0.000000   0.000000   0.000000   0.000000   0.000000  -0.000000
    34  H   -0.000000  -0.000000   0.000000   0.000000   0.000000  -0.000000
    35  H   -0.000034  -0.000007   0.000000   0.000000  -0.000000   0.002099
    36  H   -0.000000  -0.000000   0.000000   0.000000   0.000000   0.000004
    37  H   -0.000003   0.000002  -0.000000  -0.000000   0.000000   0.000026
    38  H    0.000000  -0.000000   0.000000   0.000000  -0.000000   0.000002
    39  H   -0.000000  -0.000000   0.000000  -0.000000   0.000000  -0.000000
    40  H   -0.000000   0.000000   0.000000   0.000000  -0.000000  -0.000867
    41  H   -0.033161   0.363291  -0.000029   0.000090  -0.000007   0.000087
    42  H   -0.037998   0.375426   0.000308  -0.000302   0.000034   0.000022
    43  H   -0.034511   0.370788  -0.000010  -0.000031   0.000002  -0.000067
              25         26         27         28         29         30
     1  C   -0.000006   0.000222  -0.000000  -0.000000  -0.000000  -0.000000
     2  O   -0.000075  -0.002360  -0.000000  -0.000000  -0.000000   0.000000
     3  C    0.003630  -0.034840  -0.000003  -0.000000  -0.000004  -0.000000
     4  C    0.000535   0.005332   0.000014   0.000002  -0.000027   0.000000
     5  C    0.005684   0.000336   0.003386  -0.000105  -0.000183   0.000001
     6  C   -0.049817   0.003492  -0.070061   0.005532  -0.002335   0.000004
     7  C    0.351418  -0.038447  -0.002013   0.000146   0.002777   0.000000
     8  C   -0.037048   0.347466  -0.000083   0.000006  -0.000023   0.000000
     9  C   -0.006847  -0.000141   0.379146  -0.030764  -0.039946  -0.000052
    10  C    0.001342   0.000000  -0.045292   0.358250   0.344480   0.005615
    11  N    0.000039   0.000000   0.004181  -0.042695  -0.032722  -0.041227
    12  C    0.000001   0.000000  -0.000110  -0.005855  -0.002086   0.371673
    13  C    0.000000   0.000000   0.000008  -0.001844   0.003625  -0.048784
    14  O    0.000000  -0.000000  -0.000000   0.000027   0.000041   0.001881
    15  C    0.000005  -0.000000  -0.000139   0.006215  -0.011341  -0.005978
    16  C   -0.000007  -0.000007   0.000012  -0.000165   0.005796  -0.000390
    17  O   -0.000010  -0.000000  -0.000001   0.000029   0.011480   0.000085
    18  O    0.000038   0.000000  -0.043251   0.000835   0.002137   0.000019
    19  O    0.000002  -0.000040   0.000000  -0.000000   0.000000  -0.000000
    20  C    0.000000  -0.000004  -0.000000   0.000000   0.000000   0.000000
    21  H   -0.000000  -0.000098   0.000000   0.000000   0.000000   0.000000
    22  H   -0.000001   0.000266   0.000000   0.000000   0.000000   0.000000
    23  H    0.000017   0.000899   0.000000   0.000000   0.000000   0.000000
    24  H   -0.000146   0.000016   0.000465  -0.000021  -0.000045  -0.000000
    25  H    0.611815  -0.005504   0.004110  -0.000191   0.001875  -0.000000
    26  H   -0.005504   0.588291   0.000004  -0.000000   0.000003  -0.000000
    27  H    0.004110   0.000004   0.627948  -0.009003   0.002485   0.000003
    28  H   -0.000191  -0.000000  -0.009003   0.609097  -0.037073   0.000392
    29  H    0.001875   0.000003   0.002485  -0.037073   0.581945  -0.000312
    30  H   -0.000000  -0.000000   0.000003   0.000392  -0.000312   0.572002
    31  H   -0.000000  -0.000000  -0.000058   0.006035  -0.000468  -0.026160
    32  H   -0.000000  -0.000000  -0.000000  -0.000130  -0.000046  -0.001147
    33  H   -0.000002  -0.000000   0.000003   0.001885   0.000865   0.005086
    34  H    0.000000   0.000000   0.000000  -0.000001   0.000010  -0.000054
    35  H   -0.000005   0.000000   0.000042  -0.000162  -0.000973   0.000795
    36  H    0.000000   0.000000   0.000005  -0.000196   0.000005   0.005493
    37  H    0.000037   0.000037   0.000070   0.000039  -0.003283   0.000006
    38  H   -0.000001   0.000000  -0.000000  -0.000003   0.000362   0.000012
    39  H    0.000000  -0.000000   0.000000  -0.000007  -0.001207  -0.000072
    40  H   -0.000000  -0.000000   0.007117  -0.000167   0.001840  -0.000298
    41  H   -0.000000   0.000003  -0.000000  -0.000000  -0.000000  -0.000000
    42  H    0.000000   0.000002   0.000000   0.000000   0.000000   0.000000
    43  H    0.000000  -0.000000   0.000000  -0.000000  -0.000000  -0.000000
              31         32         33         34         35         36
     1  C    0.000000   0.000000  -0.000000   0.000000   0.000000  -0.000000
     2  O   -0.000000   0.000000   0.000000  -0.000000  -0.000000  -0.000000
     3  C    0.000000   0.000000  -0.000000  -0.000000   0.000054  -0.000001
     4  C   -0.000000  -0.000000   0.000000   0.000000   0.000251   0.000004
     5  C   -0.000001  -0.000000   0.000000   0.000000   0.004624   0.000099
     6  C    0.000014   0.000000   0.000002  -0.000000  -0.000915   0.000036
     7  C   -0.000000   0.000000  -0.000000  -0.000000  -0.000030  -0.000002
     8  C    0.000000  -0.000000  -0.000000  -0.000000  -0.000062  -0.000001
     9  C    0.000466   0.000009   0.000021  -0.000000   0.003755  -0.000179
    10  C   -0.003270   0.000135   0.004256   0.000006  -0.000747   0.004606
    11  N   -0.043517   0.004395  -0.007174  -0.000177  -0.051478  -0.040950
    12  C    0.370303  -0.024697  -0.040087   0.005406   0.003337  -0.005394
    13  C   -0.049640   0.345670   0.370185  -0.018517  -0.000234  -0.001514
    14  O    0.002790  -0.035433  -0.040651   0.234013   0.000049   0.001307
    15  C    0.005335  -0.000064  -0.000078  -0.000063   0.344168   0.369443
    16  C   -0.000256  -0.000074  -0.000352   0.000068  -0.042458  -0.035507
    17  O   -0.000005   0.000116   0.004414   0.002053   0.003792  -0.002162
    18  O    0.000548   0.000000  -0.000001  -0.000000   0.002118  -0.000008
    19  O    0.000000   0.000000  -0.000000  -0.000000  -0.000034  -0.000000
    20  C   -0.000000   0.000000   0.000000  -0.000000  -0.000007  -0.000000
    21  H   -0.000000  -0.000000   0.000000   0.000000   0.000000   0.000000
    22  H   -0.000000  -0.000000   0.000000   0.000000   0.000000   0.000000
    23  H   -0.000000  -0.000000   0.000000   0.000000  -0.000000   0.000000
    24  H   -0.000000   0.000000  -0.000000  -0.000000   0.002099   0.000004
    25  H   -0.000000  -0.000000  -0.000002   0.000000  -0.000005   0.000000
    26  H   -0.000000  -0.000000  -0.000000   0.000000   0.000000   0.000000
    27  H   -0.000058  -0.000000   0.000003   0.000000   0.000042   0.000005
    28  H    0.006035  -0.000130   0.001885  -0.000001  -0.000162  -0.000196
    29  H   -0.000468  -0.000046   0.000865   0.000010  -0.000973   0.000005
    30  H   -0.026160  -0.001147   0.005086  -0.000054   0.000795   0.005493
    31  H    0.587188  -0.000616   0.000989  -0.000285  -0.000163   0.000312
    32  H   -0.000616   0.632542  -0.047370  -0.006853   0.000013  -0.000102
    33  H    0.000989  -0.047370   0.595650  -0.001825  -0.000008   0.000170
    34  H   -0.000285  -0.006853  -0.001825   0.378566  -0.000003   0.000019
    35  H   -0.000163   0.000013  -0.000008  -0.000003   0.623181  -0.035050
    36  H    0.000312  -0.000102   0.000170   0.000019  -0.035050   0.590181
    37  H    0.000003  -0.000003  -0.000027   0.000005  -0.004593   0.005290
    38  H    0.000004   0.000003   0.000035  -0.000003   0.005706  -0.007291
    39  H    0.000039   0.000940  -0.002687  -0.003645  -0.000092   0.004312
    40  H   -0.000988  -0.000009   0.000005   0.000000  -0.002895   0.000113
    41  H    0.000000   0.000000   0.000000   0.000000   0.000029   0.000000
    42  H   -0.000000   0.000000  -0.000000  -0.000000  -0.000000  -0.000000
    43  H    0.000000  -0.000000  -0.000000   0.000000   0.000001   0.000000
              37         38         39         40         41         42
     1  C    0.000000  -0.000000   0.000000  -0.000000   0.000365  -0.000063
     2  O   -0.000007   0.000000  -0.000000  -0.000000  -0.001106   0.002322
     3  C   -0.000034  -0.000007   0.000000  -0.000002   0.004304   0.002219
     4  C   -0.000030  -0.000024   0.000000  -0.000022   0.000781  -0.003463
     5  C   -0.000051   0.000016   0.000000   0.000717   0.001640  -0.000225
     6  C    0.003616   0.000030  -0.000000   0.000417  -0.000046   0.000016
     7  C    0.005901   0.000059  -0.000005  -0.000104  -0.000041   0.000003
     8  C    0.002249   0.000013  -0.000000   0.000008  -0.000403  -0.000073
     9  C   -0.001971   0.000094  -0.000024  -0.044279   0.000001  -0.000000
    10  C    0.004033  -0.000142   0.000478  -0.022959  -0.000000   0.000000
    11  N   -0.005190   0.004489  -0.000492   0.060686   0.000000  -0.000000
    12  C    0.000171  -0.000333   0.000023  -0.000825  -0.000000  -0.000000
    13  C   -0.000115   0.000157  -0.011763   0.000372   0.000000  -0.000000
    14  O   -0.000096  -0.000002   0.060983  -0.000001  -0.000000   0.000000
    15  C   -0.037277  -0.038479  -0.001415  -0.001475  -0.000010   0.000000
    16  C    0.378753   0.353515  -0.029731   0.000494   0.000031  -0.000000
    17  O   -0.041916  -0.041967   0.205518  -0.000003   0.000000  -0.000000
    18  O    0.000016   0.000001   0.000000   0.222229  -0.000000   0.000000
    19  O   -0.000003   0.000000  -0.000000  -0.000000  -0.033161  -0.037998
    20  C    0.000002  -0.000000  -0.000000   0.000000   0.363291   0.375426
    21  H   -0.000000   0.000000   0.000000   0.000000  -0.000029   0.000308
    22  H   -0.000000   0.000000  -0.000000   0.000000   0.000090  -0.000302
    23  H    0.000000  -0.000000   0.000000  -0.000000  -0.000007   0.000034
    24  H    0.000026   0.000002  -0.000000  -0.000867   0.000087   0.000022
    25  H    0.000037  -0.000001   0.000000  -0.000000  -0.000000   0.000000
    26  H    0.000037   0.000000  -0.000000  -0.000000   0.000003   0.000002
    27  H    0.000070  -0.000000   0.000000   0.007117  -0.000000   0.000000
    28  H    0.000039  -0.000003  -0.000007  -0.000167  -0.000000   0.000000
    29  H   -0.003283   0.000362  -0.001207   0.001840  -0.000000   0.000000
    30  H    0.000006   0.000012  -0.000072  -0.000298  -0.000000   0.000000
    31  H    0.000003   0.000004   0.000039  -0.000988   0.000000  -0.000000
    32  H   -0.000003   0.000003   0.000940  -0.000009   0.000000   0.000000
    33  H   -0.000027   0.000035  -0.002687   0.000005   0.000000  -0.000000
    34  H    0.000005  -0.000003  -0.003645   0.000000   0.000000  -0.000000
    35  H   -0.004593   0.005706  -0.000092  -0.002895   0.000029  -0.000000
    36  H    0.005290  -0.007291   0.004312   0.000113   0.000000  -0.000000
    37  H    0.578281  -0.050096   0.006222   0.000021   0.000005  -0.000000
    38  H   -0.050096   0.660731  -0.004830  -0.000011   0.000028   0.000000
    39  H    0.006222  -0.004830   0.351624  -0.000002   0.000000  -0.000000
    40  H    0.000021  -0.000011  -0.000002   0.377538  -0.000000  -0.000000
    41  H    0.000005   0.000028   0.000000  -0.000000   0.582770  -0.038904
    42  H   -0.000000   0.000000  -0.000000  -0.000000  -0.038904   0.586581
    43  H   -0.000000  -0.000000   0.000000  -0.000000  -0.032730  -0.041599
              43
     1  C   -0.000014
     2  O    0.000636
     3  C    0.000162
     4  C    0.002799
     5  C   -0.000055
     6  C   -0.000002
     7  C   -0.000002
     8  C    0.000024
     9  C   -0.000000
    10  C   -0.000000
    11  N    0.000000
    12  C    0.000000
    13  C   -0.000000
    14  O   -0.000000
    15  C   -0.000000
    16  C    0.000000
    17  O    0.000000
    18  O    0.000000
    19  O   -0.034511
    20  C    0.370788
    21  H   -0.000010
    22  H   -0.000031
    23  H    0.000002
    24  H   -0.000067
    25  H    0.000000
    26  H   -0.000000
    27  H    0.000000
    28  H   -0.000000
    29  H   -0.000000
    30  H   -0.000000
    31  H    0.000000
    32  H   -0.000000
    33  H   -0.000000
    34  H    0.000000
    35  H    0.000001
    36  H    0.000000
[...]
   449    H   22  S      Ryd( 2S)     0.00048       0.39386
   450    H   22  S      Ryd( 4S)     0.00065       1.55793
   451    H   22  S      Ryd( 3S)     0.00005       1.00704
   452    H   22  px     Ryd( 2p)     0.00006       1.93593
   453    H   22  py     Ryd( 2p)     0.00010       2.08855
   454    H   22  pz     Ryd( 2p)     0.00018       2.57234
 
   455    H   23  S      Val( 1S)     0.41714       0.08451
   456    H   23  S      Ryd( 2S)     0.00041       0.39360
   457    H   23  S      Ryd( 4S)     0.00037       1.33355
   458    H   23  S      Ryd( 3S)     0.00004       1.28059
   459    H   23  px     Ryd( 2p)     0.00004       1.83336
   460    H   23  py     Ryd( 2p)     0.00012       2.23413
   461    H   23  pz     Ryd( 2p)     0.00016       2.37764
 
   462    H   24  S      Val( 1S)     0.38279       0.14807
   463    H   24  S      Ryd( 4S)     0.00052       1.48894
   464    H   24  S      Ryd( 2S)     0.00046       0.89845
   465    H   24  S      Ryd( 3S)     0.00003       1.07065
   466    H   24  px     Ryd( 2p)     0.00010       2.10422
   467    H   24  py     Ryd( 2p)     0.00013       2.09431
   468    H   24  pz     Ryd( 2p)     0.00017       2.64261
 
   469    H   25  S      Val( 1S)     0.39731       0.12820
   470    H   25  S      Ryd( 2S)     0.00020       0.86580
   471    H   25  S      Ryd( 4S)     0.00036       1.48227
   472    H   25  S      Ryd( 3S)     0.00003       1.06220
   473    H   25  px     Ryd( 2p)     0.00013       2.22579
   474    H   25  py     Ryd( 2p)     0.00009       1.88053
   475    H   25  pz     Ryd( 2p)     0.00018       2.60523
 
   476    H   26  S      Val( 1S)     0.39272       0.12723
   477    H   26  S      Ryd( 2S)     0.00021       0.58138
   478    H   26  S      Ryd( 4S)     0.00041       1.52712
   479    H   26  S      Ryd( 3S)     0.00004       1.35259
   480    H   26  px     Ryd( 2p)     0.00010       2.06136
   481    H   26  py     Ryd( 2p)     0.00014       2.02343
   482    H   26  pz     Ryd( 2p)     0.00016       2.60049
 
   483    H   27  S      Val( 1S)     0.41006       0.10580
   484    H   27  S      Ryd( 2S)     0.00073       0.50695
   485    H   27  S      Ryd( 3S)     0.00036       0.97585
   486    H   27  S      Ryd( 4S)     0.00008       2.62802
   487    H   27  px     Ryd( 2p)     0.00012       2.00990
   488    H   27  py     Ryd( 2p)     0.00015       2.35406
   489    H   27  pz     Ryd( 2p)     0.00013       2.49647
 
   490    H   28  S      Val( 1S)     0.40048       0.11814
   491    H   28  S      Ryd( 2S)     0.00048       0.61512
   492    H   28  S      Ryd( 4S)     0.00035       1.74865
   493    H   28  S      Ryd( 3S)     0.00004       0.98417
   494    H   28  px     Ryd( 2p)     0.00012       2.47074
   495    H   28  py     Ryd( 2p)     0.00011       2.31660
   496    H   28  pz     Ryd( 2p)     0.00007       2.08716
 
   497    H   29  S      Val( 1S)     0.39648       0.13277
   498    H   29  S      Ryd( 2S)     0.00058       0.55648
   499    H   29  S      Ryd( 4S)     0.00061       1.91939
   500    H   29  S      Ryd( 3S)     0.00002       0.95708
   501    H   29  px     Ryd( 2p)     0.00007       2.02018
   502    H   29  py     Ryd( 2p)     0.00014       2.42526
   503    H   29  pz     Ryd( 2p)     0.00009       2.49749
 
   504    H   30  S      Val( 1S)     0.39974       0.12267
   505    H   30  S      Ryd( 2S)     0.00050       0.44463
   506    H   30  S      Ryd( 4S)     0.00039       1.75091
   507    H   30  S      Ryd( 3S)     0.00003       1.19259
   508    H   30  px     Ryd( 2p)     0.00005       1.98137
   509    H   30  py     Ryd( 2p)     0.00008       2.05869
   510    H   30  pz     Ryd( 2p)     0.00016       2.78342
 
   511    H   31  S      Val( 1S)     0.40126       0.11609
   512    H   31  S      Ryd( 2S)     0.00044       0.61788
   513    H   31  S      Ryd( 4S)     0.00031       1.50520
   514    H   31  S      Ryd( 3S)     0.00004       1.23515
   515    H   31  px     Ryd( 2p)     0.00005       1.99774
   516    H   31  py     Ryd( 2p)     0.00019       2.74255
   517    H   31  pz     Ryd( 2p)     0.00008       1.95334
 
   518    H   32  S      Val( 1S)     0.40935       0.10069
   519    H   32  S      Ryd( 2S)     0.00313       0.34278
   520    H   32  S      Ryd( 4S)     0.00043       1.58609
   521    H   32  S      Ryd( 3S)     0.00002       1.15734
   522    H   32  px     Ryd( 2p)     0.00018       2.64399
   523    H   32  py     Ryd( 2p)     0.00006       2.01717
   524    H   32  pz     Ryd( 2p)     0.00009       1.94264
 
   525    H   33  S      Val( 1S)     0.41419       0.10820
   526    H   33  S      Ryd( 2S)     0.00065       0.39639
   527    H   33  S      Ryd( 4S)     0.00055       1.78604
   528    H   33  S      Ryd( 3S)     0.00002       1.12409
   529    H   33  px     Ryd( 2p)     0.00009       1.97342
   530    H   33  py     Ryd( 2p)     0.00004       1.89885
   531    H   33  pz     Ryd( 2p)     0.00020       2.81191
 
   532    H   34  S      Val( 1S)     0.23402       0.15398
   533    H   34  S      Ryd( 2S)     0.01823       0.34829
   534    H   34  S      Ryd( 4S)     0.00028       2.26434
   535    H   34  S      Ryd( 3S)     0.00007       0.77999
   536    H   34  px     Ryd( 2p)     0.00049       2.38115
   537    H   34  py     Ryd( 2p)     0.00052       2.07831
   538    H   34  pz     Ryd( 2p)     0.00064       1.92490
 
   539    H   35  S      Val( 1S)     0.40240       0.12733
   540    H   35  S      Ryd( 2S)     0.00058       0.84618
   541    H   35  S      Ryd( 4S)     0.00052       1.85187
   542    H   35  S      Ryd( 3S)     0.00002       0.87143
   543    H   35  px     Ryd( 2p)     0.00013       2.61971
   544    H   35  py     Ryd( 2p)     0.00008       1.98193
   545    H   35  pz     Ryd( 2p)     0.00010       2.18101
 
   546    H   36  S      Val( 1S)     0.39861       0.12599
   547    H   36  S      Ryd( 2S)     0.00065       0.57073
   548    H   36  S      Ryd( 4S)     0.00035       1.74564
   549    H   36  S      Ryd( 3S)     0.00002       1.11125
   550    H   36  px     Ryd( 2p)     0.00009       2.24432
   551    H   36  py     Ryd( 2p)     0.00009       2.13103
   552    H   36  pz     Ryd( 2p)     0.00013       2.43691
 
   553    H   37  S      Val( 1S)     0.40997       0.12797
   554    H   37  S      Ryd( 2S)     0.00100       0.58466
   555    H   37  S      Ryd( 4S)     0.00030       2.14638
   556    H   37  S      Ryd( 3S)     0.00001       0.74821
   557    H   37  px     Ryd( 2p)     0.00016       2.45541
   558    H   37  py     Ryd( 2p)     0.00011       2.03772
   559    H   37  pz     Ryd( 2p)     0.00011       2.26135
 
   560    H   38  S      Val( 1S)     0.42197       0.10775
   561    H   38  S      Ryd( 2S)     0.00018       0.53617
   562    H   38  S      Ryd( 4S)     0.00054       1.42630
   563    H   38  S      Ryd( 3S)     0.00004       1.40426
   564    H   38  px     Ryd( 2p)     0.00006       2.04955
   565    H   38  py     Ryd( 2p)     0.00020       2.55005
   566    H   38  pz     Ryd( 2p)     0.00011       2.06175
 
   567    H   39  S      Val( 1S)     0.25558       0.23062
   568    H   39  S      Ryd( 2S)     0.00139       0.58647
   569    H   39  S      Ryd( 4S)     0.00089       2.16231
   570    H   39  S      Ryd( 3S)     0.00003       0.93424
   571    H   39  px     Ryd( 2p)     0.00059       2.49733
   572    H   39  py     Ryd( 2p)     0.00068       1.89364
   573    H   39  pz     Ryd( 2p)     0.00052       2.15068
 
   574    H   40  S      Val( 1S)     0.26097       0.20010
   575    H   40  S      Ryd( 2S)     0.00050       0.66211
   576    H   40  S      Ryd( 4S)     0.00088       2.10768
   577    H   40  S      Ryd( 3S)     0.00007       0.93757
   578    H   40  px     Ryd( 2p)     0.00066       2.11525
   579    H   40  py     Ryd( 2p)     0.00056       2.19795
   580    H   40  pz     Ryd( 2p)     0.00046       2.30646
 
   581    H   41  S      Val( 1S)     0.41562       0.08879
   582    H   41  S      Ryd( 2S)     0.00057       0.61806
   583    H   41  S      Ryd( 4S)     0.00039       1.41336
   584    H   41  S      Ryd( 3S)     0.00003       1.11810
   585    H   41  px     Ryd( 2p)     0.00019       2.63930
   586    H   41  py     Ryd( 2p)     0.00005       1.88345
   587    H   41  pz     Ryd( 2p)     0.00008       1.93241
 
   588    H   42  S      Val( 1S)     0.40825       0.10143
   589    H   42  S      Ryd( 2S)     0.00059       0.40719
   590    H   42  S      Ryd( 4S)     0.00063       1.57483
   591    H   42  S      Ryd( 3S)     0.00004       1.02948
   592    H   42  px     Ryd( 2p)     0.00011       2.03637
   593    H   42  py     Ryd( 2p)     0.00008       2.35986
   594    H   42  pz     Ryd( 2p)     0.00016       2.19671
 
   595    H   43  S      Val( 1S)     0.40867       0.09403
   596    H   43  S      Ryd( 2S)     0.00060       0.33400
   597    H   43  S      Ryd( 4S)     0.00021       1.28918
   598    H   43  S      Ryd( 3S)     0.00002       1.24009
   599    H   43  px     Ryd( 2p)     0.00012       2.12927
   600    H   43  py     Ryd( 2p)     0.00005       1.81889
   601    H   43  pz     Ryd( 2p)     0.00014       2.47516

 WARNING:  Population inversion found on atom  C    3
           Population inversion found on atom  C    4
           Population inversion found on atom  C    5
           Population inversion found on atom  C    6
           Population inversion found on atom  C    7
           Population inversion found on atom  C    8
           Population inversion found on atom  C    9
           Population inversion found on atom  N   11
           Population inversion found on atom  C   12
           Population inversion found on atom  C   13
           Population inversion found on atom  O   14
           Population inversion found on atom  C   15
           Population inversion found on atom  C   16
           Population inversion found on atom  O   17
           Population inversion found on atom  H   22
           Population inversion found on atom  H   23
           Population inversion found on atom  H   24
           Population inversion found on atom  H   25
           Population inversion found on atom  H   26
           Population inversion found on atom  H   28
           Population inversion found on atom  H   29
           Population inversion found on atom  H   30
           Population inversion found on atom  H   31
           Population inversion found on atom  H   32
           Population inversion found on atom  H   33
           Population inversion found on atom  H   34
           Population inversion found on atom  H   35
           Population inversion found on atom  H   36
           Population inversion found on atom  H   37
           Population inversion found on atom  H   38
           Population inversion found on atom  H   39
           Population inversion found on atom  H   40
           Population inversion found on atom  H   41
           Population inversion found on atom  H   42
           Population inversion found on atom  H   43


 Summary of Natural Population Analysis:                  
                                                          
                                       Natural Population 
                Natural  -----------------------------------------------
    Atom  No    Charge         Core      Valence    Rydberg      Total
 -----------------------------------------------------------------------
      C    1   -0.09992      0.99959     2.09145    0.00888     3.09992
      O    2   -0.29203      0.99986     3.28174    0.01043     4.29203
      C    3    0.12901      0.99931     1.85779    0.01388     2.87099
      C    4    0.13768      0.99932     1.84925    0.01376     2.86232
      C    5   -0.11638      0.99946     2.10765    0.00926     3.11638
      C    6   -0.02350      0.99949     2.01444    0.00957     3.02350
      C    7   -0.10705      0.99952     2.09918    0.00835     3.10705
      C    8   -0.11191      0.99952     2.10320    0.00919     3.11191
      C    9    0.05507      0.99952     1.93171    0.01369     2.94493
      C   10   -0.09374      0.99959     2.08347    0.01069     3.09374
      N   11   -0.30037      0.99972     2.78572    0.01493     3.80037
      C   12   -0.08895      0.99959     2.07627    0.01309     3.08895
      C   13   -0.02215      0.99958     2.00999    0.01257     3.02215
      O   14   -0.38303      0.99989     3.37472    0.00842     4.38303
      C   15   -0.09858      0.99960     2.08852    0.01046     3.09858
      C   16   -0.02348      0.99960     2.01123    0.01265     3.02348
      O   17   -0.38330      0.99989     3.37707    0.00634     4.38330
      O   18   -0.37530      0.99990     3.36929    0.00610     4.37530
      O   19   -0.29188      0.99986     3.28182    0.01020     4.29188
      C   20   -0.10023      0.99959     2.09168    0.00896     3.10023
      H   21    0.09064      0.00000     0.40805    0.00131     0.40936
      H   22    0.09074      0.00000     0.40774    0.00152     0.40926
      H   23    0.08172      0.00000     0.41714    0.00115     0.41828
      H   24    0.11580      0.00000     0.38279    0.00141     0.38420
      H   25    0.10170      0.00000     0.39731    0.00098     0.39830
      H   26    0.10623      0.00000     0.39272    0.00105     0.39377
      H   27    0.08835      0.00000     0.41006    0.00158     0.41165
      H   28    0.09835      0.00000     0.40048    0.00117     0.40165
      H   29    0.10201      0.00000     0.39648    0.00151     0.39799
      H   30    0.09906      0.00000     0.39974    0.00120     0.40094
      H   31    0.09762      0.00000     0.40126    0.00111     0.40238
      H   32    0.08674      0.00000     0.40935    0.00391     0.41326
      H   33    0.08425      0.00000     0.41419    0.00156     0.41575
      H   34    0.24576      0.00000     0.23402    0.02022     0.25424
      H   35    0.09618      0.00000     0.40240    0.00142     0.40382
      H   36    0.10005      0.00000     0.39861    0.00134     0.39995
      H   37    0.08834      0.00000     0.40997    0.00169     0.41166
      H   38    0.07689      0.00000     0.42197    0.00114     0.42311
      H   39    0.24031      0.00000     0.25558    0.00411     0.25969
      H   40    0.23590      0.00000     0.26097    0.00313     0.26410
      H   41    0.08306      0.00000     0.41562    0.00132     0.41694
      H   42    0.09015      0.00000     0.40825    0.00159     0.40985
      H   43    0.09019      0.00000     0.40867    0.00114     0.40981
 =======================================================================
   * Total *    0.00000     19.99243    56.73960    0.26797    77.00000

                                 Natural Population      
 --------------------------------------------------------
   Core                      19.99243 ( 99.9622% of  20)
   Valence                   56.73960 ( 99.5432% of  57)
   Natural Minimal Basis     76.73203 ( 99.6520% of  77)
   Natural Rydberg Basis      0.26797 (  0.3480% of  77)
 --------------------------------------------------------

    Atom  No          Natural Electron Configuration
 ----------------------------------------------------------------------------
      C    1      [core]2S( 0.54)2p( 1.55)
      O    2      [core]2S( 0.80)2p( 2.48)3p( 0.01)
      C    3      [core]2S( 0.42)2p( 1.44)3p( 0.01)
      C    4      [core]2S( 0.42)2p( 1.43)3p( 0.01)
      C    5      [core]2S( 0.47)2p( 1.64)4p( 0.01)
      C    6      [core]2S( 0.45)2p( 1.57)4p( 0.01)
      C    7      [core]2S( 0.47)2p( 1.63)4p( 0.01)
      C    8      [core]2S( 0.48)2p( 1.63)4p( 0.01)
      C    9      [core]2S( 0.47)2p( 1.46)4p( 0.01)
      C   10      [core]2S( 0.50)2p( 1.58)3p( 0.01)
      N   11      [core]2S( 0.62)2p( 2.16)3p( 0.01)
      C   12      [core]2S( 0.50)2p( 1.58)3p( 0.01)
      C   13      [core]2S( 0.51)2p( 1.50)
      O   14      [core]2S( 0.85)2p( 2.53)
      C   15      [core]2S( 0.50)2p( 1.59)3p( 0.01)
      C   16      [core]2S( 0.50)2p( 1.51)3p( 0.01)
      O   17      [core]2S( 0.84)2p( 2.54)
      O   18      [core]2S( 0.84)2p( 2.53)
      O   19      [core]2S( 0.80)2p( 2.48)3p( 0.01)
      C   20      [core]2S( 0.54)2p( 1.55)
      H   21            1S( 0.41)
      H   22            1S( 0.41)
      H   23            1S( 0.42)
      H   24            1S( 0.38)
      H   25            1S( 0.40)
      H   26            1S( 0.39)
      H   27            1S( 0.41)
      H   28            1S( 0.40)
      H   29            1S( 0.40)
      H   30            1S( 0.40)
      H   31            1S( 0.40)
      H   32            1S( 0.41)
      H   33            1S( 0.41)
      H   34            1S( 0.23)2S( 0.02)
      H   35            1S( 0.40)
      H   36            1S( 0.40)
      H   37            1S( 0.41)
      H   38            1S( 0.42)
      H   39            1S( 0.26)
      H   40            1S( 0.26)
      H   41            1S( 0.42)
      H   42            1S( 0.41)
      H   43            1S( 0.41)


 NBO analysis skipped by request.
 1\1\GINC-NODE123\SP\UB3LYP\6-311++G(d,p)\C14H23N1O5(1-,2)\VSC10255\12-
 Dec-2020\0\\# B3LYP/6-311++G(d,p) empiricaldispersion=gd3bj scf=xqc po
 p=npa geom=check\\CID_82216156_JID_10544_Energie_anion\\-1,2\C,0,0.638
 2214623,0.1540085154,0.0507440196\O,0,0.7535875935,-1.2580595057,0.254
 4059602\C,0,0.8851072254,-1.9894600193,-0.9060853567\C,0,-0.1671570584
 ,-2.1050375784,-1.8304434545\C,0,0.0035489109,-2.864187676,-2.98694991
 64\C,0,1.1989591263,-3.5412936121,-3.2316090388\C,0,2.2399394469,-3.42
 86222796,-2.3026580713\C,0,2.0850176242,-2.6565885321,-1.1528890262\C,
 0,1.3669104049,-4.4102436977,-4.4714337653\C,0,1.5228192592,-5.9200128
 923,-4.1372260144\N,0,0.2091713399,-6.5290149132,-3.9207073605\C,0,-0.
 0235569247,-7.7820751999,-4.6296897235\C,0,0.7249408186,-9.0354365055,
 -4.1704818709\O,0,0.0999323412,-9.5496039342,-2.9803870355\C,0,-0.3771
 454622,-6.4092633147,-2.575760037\C,0,0.5819116762,-6.5540001075,-1.38
 45861183\O,0,1.4375997814,-7.6787370671,-1.4593448771\O,0,0.2990981772
 ,-4.2708015739,-5.387319808\O,0,-1.3657806124,-1.4514520324,-1.6375716
 465\C,0,-2.1382938322,-1.9591037016,-0.5463305327\H,0,0.5499266165,0.5
 982881676,1.0446373691\H,0,-0.2447699077,0.3980728079,-0.5477598411\H,
 0,1.5355798974,0.5448122485,-0.4459728116\H,0,-0.8070050093,-2.9217614
 999,-3.7042772803\H,0,3.1825069713,-3.9416989001,-2.4787639273\H,0,2.8
 868965973,-2.5546000641,-0.428223687\H,0,2.2825488757,-4.0907115804,-4
 .9866323016\H,0,1.9654515126,-6.400588501,-5.0153232918\H,0,2.20804941
 91,-6.0801889918,-3.2979948234\H,0,-1.0966823146,-8.0059912869,-4.5993
 782563\H,0,0.2350577267,-7.6148157111,-5.6824646571\H,0,0.6670677139,-
 9.7891629112,-4.96844484\H,0,1.7808021146,-8.8044808009,-3.9799171435\
 H,0,0.5051331378,-10.40707327,-2.776866398\H,0,-0.8669156533,-5.432030
 5073,-2.4742805705\H,0,-1.1621844701,-7.1686722706,-2.5041310882\H,0,1
 .2283350614,-5.6754544507,-1.3124427657\H,0,-0.0356529828,-6.567226989
 9,-0.4696779655\H,0,0.8905879414,-8.4329579441,-1.7546262102\H,0,-0.30
 91429861,-4.9957545632,-5.1231650499\H,0,-2.3936810649,-3.0137373818,-
 0.7145234562\H,0,-1.5999671593,-1.8619374354,0.4017357061\H,0,-3.05389
 33358,-1.3642525357,-0.5177330362\\Version=ES64L-G16RevA.03\State=2-A\
 HF=-978.5047488\S2=0.75008\S2-1=0.\S2A=0.75\RMSD=2.204e-11\Dipole=0.34
 74126,3.042776,-0.0614008\Quadrupole=35.0871495,-51.4375716,16.3504221
 ,9.0686282,0.5467347,-20.2423132\PG=C01 [X(C14H23N1O5)]\\@


 IN THE LONG RUN, DIGGING FOR TRUTH HAS ALWAYS PROVED NOT ONLY 
 MORE INTERESTING BUT MORE PROFITABLE THAN DIGGING FOR GOLD.

                             -- GEORGE R. HARRISON
 Job cpu time:       0 days  2 hours 37 minutes 40.4 seconds.
 Elapsed time:       0 days  0 hours 39 minutes 38.9 seconds.
 File lengths (MBytes):  RWF=    392 Int=      0 D2E=      0 Chk=     36 Scr=      8
 Normal termination of Gaussian 16 at Sat Dec 12 18:09:53 2020.
