 Entering Gaussian System, Link 0=g16
 Initial command:
 /apps/brussel/CO7/skylake/software/Gaussian/G16.A.03-intel-2017b/g16/l1.exe "/scratch/brussel/102/vsc10255/3547575[4177].master01.hydra.brussel.vsc/Gau-30800.inp" -scrdir="/scratch/brussel/102/vsc10255/3547575[4177].master01.hydra.brussel.vsc/"
 Entering Link 1 = /apps/brussel/CO7/skylake/software/Gaussian/G16.A.03-intel-2017b/g16/l1.exe.bin PID=     30801.
  
 Copyright (c) 1988,1990,1992,1993,1995,1998,2003,2009,2016,
            Gaussian, Inc.  All Rights Reserved.
  
 This is part of the Gaussian(R) 16 program.  It is based on
 the Gaussian(R) 09 system (copyright 2009, Gaussian, Inc.),
 the Gaussian(R) 03 system (copyright 2003, Gaussian, Inc.),
 the Gaussian(R) 98 system (copyright 1998, Gaussian, Inc.),
 the Gaussian(R) 94 system (copyright 1995, Gaussian, Inc.),
 the Gaussian 92(TM) system (copyright 1992, Gaussian, Inc.),
 the Gaussian 90(TM) system (copyright 1990, Gaussian, Inc.),
 the Gaussian 88(TM) system (copyright 1988, Gaussian, Inc.),
 the Gaussian 86(TM) system (copyright 1986, Carnegie Mellon
 University), and the Gaussian 82(TM) system (copyright 1983,
 Carnegie Mellon University). Gaussian is a federally registered
 trademark of Gaussian, Inc.
  
 This software contains proprietary and confidential information,
 including trade secrets, belonging to Gaussian, Inc.
  
 This software is provided under written license and may be
 used, copied, transmitted, or stored only in accord with that
 written license.
  
 The following legend is applicable only to US Government
 contracts under FAR:
  
                    RESTRICTED RIGHTS LEGEND
  
 Use, reproduction and disclosure by the US Government is
 subject to restrictions as set forth in subparagraphs (a)
 and (c) of the Commercial Computer Software - Restricted
 Rights clause in FAR 52.227-19.
  
 Gaussian, Inc.
 340 Quinnipiac St., Bldg. 40, Wallingford CT 06492
  
  
 ---------------------------------------------------------------
 Warning -- This program may not be used in any manner that
 competes with the business of Gaussian, Inc. or will provide
 assistance to any competitor of Gaussian, Inc.  The licensee
 of this program is prohibited from giving any competitor of
 Gaussian, Inc. access to this program.  By using this program,
 the user acknowledges that Gaussian, Inc. is engaged in the
 business of creating and licensing software in the field of
 computational chemistry and represents and warrants to the
 licensee that it is not a competitor of Gaussian, Inc. and that
 it will not use this program in any manner prohibited above.
 ---------------------------------------------------------------
  

 Cite this work as:
 Gaussian 16, Revision A.03,
 M. J. Frisch, G. W. Trucks, H. B. Schlegel, G. E. Scuseria, 
 M. A. Robb, J. R. Cheeseman, G. Scalmani, V. Barone, 
 G. A. Petersson, H. Nakatsuji, X. Li, M. Caricato, A. V. Marenich, 
 J. Bloino, B. G. Janesko, R. Gomperts, B. Mennucci, H. P. Hratchian, 
 J. V. Ortiz, A. F. Izmaylov, J. L. Sonnenberg, D. Williams-Young, 
 F. Ding, F. Lipparini, F. Egidi, J. Goings, B. Peng, A. Petrone, 
 T. Henderson, D. Ranasinghe, V. G. Zakrzewski, J. Gao, N. Rega, 
 G. Zheng, W. Liang, M. Hada, M. Ehara, K. Toyota, R. Fukuda, 
 J. Hasegawa, M. Ishida, T. Nakajima, Y. Honda, O. Kitao, H. Nakai, 
 T. Vreven, K. Throssell, J. A. Montgomery, Jr., J. E. Peralta, 
 F. Ogliaro, M. J. Bearpark, J. J. Heyd, E. N. Brothers, K. N. Kudin, 
 V. N. Staroverov, T. A. Keith, R. Kobayashi, J. Normand, 
 K. Raghavachari, A. P. Rendell, J. C. Burant, S. S. Iyengar, 
 J. Tomasi, M. Cossi, J. M. Millam, M. Klene, C. Adamo, R. Cammi, 
 J. W. Ochterski, R. L. Martin, K. Morokuma, O. Farkas, 
 J. B. Foresman, and D. J. Fox, Gaussian, Inc., Wallingford CT, 2016.
 
 ******************************************
 Gaussian 16:  ES64L-G16RevA.03 25-Dec-2016
                10-Dec-2020 
 ******************************************
 %chk=JID_4177.chk
 %mem=8GB
 %nprocshared=4
 Will use up to    4 processors via shared memory.
 -----------------------------------------------------------
 # opt freq B3LYP/6-31G(d) empiricaldispersion=gd3bj scf=xqc
 -----------------------------------------------------------
 1/18=20,19=15,26=3,38=1/1,3;
 2/9=110,12=2,17=6,18=5,40=1/2;
 3/5=1,6=6,7=1,11=2,25=1,30=1,71=1,74=-5,124=41/1,2,3;
 4//1;
 5/5=2,8=3,13=1,38=5/2,8;
 6/7=2,8=2,9=2,10=2,28=1/1;
 7//1,2,3,16;
 1/18=20,19=15,26=3/3(2);
 2/9=110/2;
 99//99;
 2/9=110/2;
 3/5=1,6=6,7=1,11=2,25=1,30=1,71=1,74=-5,124=41/1,2,3;
 4/5=5,16=3,69=1/1;
 5/5=2,8=3,13=1,38=5/2,8;
 7//1,2,3,16;
 1/18=20,19=15,26=3/3(-5);
 2/9=110/2;
 6/7=2,8=2,9=2,10=2,19=2,28=1/1;
 99/9=1/99;
 -------------------------------
 CID_108211052_JID_4177_neutraal
 -------------------------------
 Symbolic Z-matrix:
 Charge =  0 Multiplicity = 1
 C                     0.98235  -0.0979    0.01021 
 O                     0.45169  -1.38066  -0.31134 
 C                     0.71099  -1.7781   -1.59489 
 C                    -0.31606  -2.33333  -2.3651 
 N                    -0.1404   -2.76149  -3.64668 
 C                     1.10722  -2.67982  -4.15352 
 C                     2.19043  -2.17389  -3.454 
 C                     1.98785  -1.71816  -2.15333 
 C                    -1.67764  -2.42802  -1.84446 
 N                    -2.18243  -3.61731  -1.47406 
 S                    -3.71629  -3.28652  -0.9116 
 N                    -3.77648  -1.63523  -1.1429 
 C                    -2.59502  -1.30916  -1.66667 
 N                    -2.31111  -0.02864  -2.01529 
 H                     0.45849   0.26694   0.89889 
 H                     0.81908   0.62517  -0.79703 
 H                     2.0464   -0.17074   0.25542 
 H                     1.21936  -3.04989  -5.1691 
 H                     3.17542  -2.1465   -3.90768 
 H                     2.8337   -1.34803  -1.58298 
 H                    -3.11019   0.5967   -2.05294 
 H                    -1.64901   0.13708  -2.76617 
 

 GradGradGradGradGradGradGradGradGradGradGradGradGradGradGradGradGradGrad
 Berny optimization.
 Initialization pass.
                           ----------------------------
                           !    Initial Parameters    !
                           ! (Angstroms and Degrees)  !
 --------------------------                            --------------------------
 ! Name  Definition              Value          Derivative Info.                !
 --------------------------------------------------------------------------------
 ! R1    R(1,2)                  1.4249         estimate D2E/DX2                !
 ! R2    R(1,15)                 1.0942         estimate D2E/DX2                !
 ! R3    R(1,16)                 1.096          estimate D2E/DX2                !
 ! R4    R(1,17)                 1.0944         estimate D2E/DX2                !
 ! R5    R(2,3)                  1.3685         estimate D2E/DX2                !
 ! R6    R(3,4)                  1.3987         estimate D2E/DX2                !
 ! R7    R(3,8)                  1.3949         estimate D2E/DX2                !
 ! R8    R(4,5)                  1.3626         estimate D2E/DX2                !
 ! R9    R(4,9)                  1.4608         estimate D2E/DX2                !
 ! R10   R(5,6)                  1.3491         estimate D2E/DX2                !
 ! R11   R(6,7)                  1.3851         estimate D2E/DX2                !
 ! R12   R(6,18)                 1.0867         estimate D2E/DX2                !
 ! R13   R(7,8)                  1.393          estimate D2E/DX2                !
 ! R14   R(7,19)                 1.0848         estimate D2E/DX2                !
 ! R15   R(8,20)                 1.0852         estimate D2E/DX2                !
 ! R16   R(9,10)                 1.344          estimate D2E/DX2                !
 ! R17   R(9,13)                 1.4578         estimate D2E/DX2                !
 ! R18   R(10,11)                1.6669         estimate D2E/DX2                !
 ! R19   R(11,12)                1.6685         estimate D2E/DX2                !
 ! R20   R(12,13)                1.3329         estimate D2E/DX2                !
 ! R21   R(13,14)                1.3572         estimate D2E/DX2                !
 ! R22   R(14,21)                1.0154         estimate D2E/DX2                !
 ! R23   R(14,22)                1.0147         estimate D2E/DX2                !
 ! A1    A(2,1,15)             107.7664         estimate D2E/DX2                !
 ! A2    A(2,1,16)             111.8537         estimate D2E/DX2                !
 ! A3    A(2,1,17)             110.6547         estimate D2E/DX2                !
 ! A4    A(15,1,16)            107.8728         estimate D2E/DX2                !
 ! A5    A(15,1,17)            107.8008         estimate D2E/DX2                !
 ! A6    A(16,1,17)            110.7199         estimate D2E/DX2                !
 ! A7    A(1,2,3)              113.737          estimate D2E/DX2                !
 ! A8    A(2,3,4)              119.5149         estimate D2E/DX2                !
 ! A9    A(2,3,8)              122.443          estimate D2E/DX2                !
 ! A10   A(4,3,8)              117.9532         estimate D2E/DX2                !
 ! A11   A(3,4,5)              123.2302         estimate D2E/DX2                !
 ! A12   A(3,4,9)              120.9233         estimate D2E/DX2                !
 ! A13   A(5,4,9)              115.7861         estimate D2E/DX2                !
 ! A14   A(4,5,6)              116.9715         estimate D2E/DX2                !
 ! A15   A(5,6,7)              123.75           estimate D2E/DX2                !
 ! A16   A(5,6,18)             115.2082         estimate D2E/DX2                !
 ! A17   A(7,6,18)             121.0407         estimate D2E/DX2                !
 ! A18   A(6,7,8)              118.5097         estimate D2E/DX2                !
 ! A19   A(6,7,19)             120.5364         estimate D2E/DX2                !
 ! A20   A(8,7,19)             120.9494         estimate D2E/DX2                !
 ! A21   A(3,8,7)              119.5287         estimate D2E/DX2                !
 ! A22   A(3,8,20)             121.178          estimate D2E/DX2                !
 ! A23   A(7,8,20)             119.2712         estimate D2E/DX2                !
 ! A24   A(4,9,10)             120.3745         estimate D2E/DX2                !
 ! A25   A(4,9,13)             125.4706         estimate D2E/DX2                !
 ! A26   A(10,9,13)            114.154          estimate D2E/DX2                !
 ! A27   A(9,10,11)            105.248          estimate D2E/DX2                !
 ! A28   A(10,11,12)           100.534          estimate D2E/DX2                !
 ! A29   A(11,12,13)           105.3442         estimate D2E/DX2                !
 ! A30   A(9,13,12)            114.7077         estimate D2E/DX2                !
 ! A31   A(9,13,14)            124.1392         estimate D2E/DX2                !
 ! A32   A(12,13,14)           121.1448         estimate D2E/DX2                !
 ! A33   A(13,14,21)           115.213          estimate D2E/DX2                !
 ! A34   A(13,14,22)           118.7296         estimate D2E/DX2                !
 ! A35   A(21,14,22)           112.6734         estimate D2E/DX2                !
 ! D1    D(15,1,2,3)           161.4582         estimate D2E/DX2                !
 ! D2    D(16,1,2,3)            43.051          estimate D2E/DX2                !
 ! D3    D(17,1,2,3)           -80.9055         estimate D2E/DX2                !
 ! D4    D(1,2,3,4)           -134.34           estimate D2E/DX2                !
 ! D5    D(1,2,3,8)             49.162          estimate D2E/DX2                !
 ! D6    D(2,3,4,5)           -179.586          estimate D2E/DX2                !
 ! D7    D(2,3,4,9)              3.36           estimate D2E/DX2                !
 ! D8    D(8,3,4,5)             -2.9316         estimate D2E/DX2                !
 ! D9    D(8,3,4,9)           -179.9855         estimate D2E/DX2                !
 ! D10   D(2,3,8,7)            178.2043         estimate D2E/DX2                !
 ! D11   D(2,3,8,20)            -0.0729         estimate D2E/DX2                !
 ! D12   D(4,3,8,7)              1.6543         estimate D2E/DX2                !
 ! D13   D(4,3,8,20)          -176.6229         estimate D2E/DX2                !
 ! D14   D(3,4,5,6)              2.556          estimate D2E/DX2                !
 ! D15   D(9,4,5,6)            179.7493         estimate D2E/DX2                !
 ! D16   D(3,4,9,10)          -106.9235         estimate D2E/DX2                !
 ! D17   D(3,4,9,13)            72.6844         estimate D2E/DX2                !
 ! D18   D(5,4,9,10)            75.8132         estimate D2E/DX2                !
 ! D19   D(5,4,9,13)          -104.5789         estimate D2E/DX2                !
 ! D20   D(4,5,6,7)             -0.9642         estimate D2E/DX2                !
 ! D21   D(4,5,6,18)           178.6566         estimate D2E/DX2                !
 ! D22   D(5,6,7,8)             -0.1664         estimate D2E/DX2                !
 ! D23   D(5,6,7,19)           179.0656         estimate D2E/DX2                !
 ! D24   D(18,6,7,8)          -179.766          estimate D2E/DX2                !
 ! D25   D(18,6,7,19)           -0.534          estimate D2E/DX2                !
 ! D26   D(6,7,8,3)             -0.204          estimate D2E/DX2                !
 ! D27   D(6,7,8,20)           178.1063         estimate D2E/DX2                !
 ! D28   D(19,7,8,3)          -179.4327         estimate D2E/DX2                !
 ! D29   D(19,7,8,20)           -1.1224         estimate D2E/DX2                !
 ! D30   D(4,9,10,11)          178.5728         estimate D2E/DX2                !
 ! D31   D(13,9,10,11)          -1.0772         estimate D2E/DX2                !
 ! D32   D(4,9,13,12)         -178.4038         estimate D2E/DX2                !
 ! D33   D(4,9,13,14)            2.6358         estimate D2E/DX2                !
 ! D34   D(10,9,13,12)           1.2255         estimate D2E/DX2                !
 ! D35   D(10,9,13,14)        -177.7349         estimate D2E/DX2                !
 ! D36   D(9,10,11,12)           0.6282         estimate D2E/DX2                !
 ! D37   D(10,11,12,13)          0.0287         estimate D2E/DX2                !
 ! D38   D(11,12,13,9)          -0.6633         estimate D2E/DX2                !
 ! D39   D(11,12,13,14)        178.3314         estimate D2E/DX2                !
 ! D40   D(9,13,14,21)         165.3138         estimate D2E/DX2                !
 ! D41   D(9,13,14,22)          27.2425         estimate D2E/DX2                !
 ! D42   D(12,13,14,21)        -13.5827         estimate D2E/DX2                !
 ! D43   D(12,13,14,22)       -151.654          estimate D2E/DX2                !
 --------------------------------------------------------------------------------
 Trust Radius=3.00D-01 FncErr=1.00D-07 GrdErr=1.00D-06 EigMax=2.50D+02 EigMin=1.00D-04
 Number of steps in this run=    111 maximum allowed number of steps=    132.
 GradGradGradGradGradGradGradGradGradGradGradGradGradGradGradGradGradGrad

                          Input orientation:                          
 ---------------------------------------------------------------------
 Center     Atomic      Atomic             Coordinates (Angstroms)
 Number     Number       Type             X           Y           Z
 ---------------------------------------------------------------------
      1          6           0        0.982350   -0.097900    0.010210
      2          8           0        0.451690   -1.380660   -0.311340
      3          6           0        0.710990   -1.778100   -1.594890
      4          6           0       -0.316060   -2.333330   -2.365100
      5          7           0       -0.140400   -2.761490   -3.646680
      6          6           0        1.107220   -2.679820   -4.153520
      7          6           0        2.190430   -2.173890   -3.454000
      8          6           0        1.987850   -1.718160   -2.153330
      9          6           0       -1.677640   -2.428020   -1.844460
     10          7           0       -2.182430   -3.617310   -1.474060
     11         16           0       -3.716290   -3.286520   -0.911600
     12          7           0       -3.776480   -1.635230   -1.142900
     13          6           0       -2.595020   -1.309160   -1.666670
     14          7           0       -2.311110   -0.028640   -2.015290
     15          1           0        0.458490    0.266940    0.898890
     16          1           0        0.819080    0.625170   -0.797030
     17          1           0        2.046400   -0.170740    0.255420
     18          1           0        1.219360   -3.049890   -5.169100
     19          1           0        3.175420   -2.146500   -3.907680
     20          1           0        2.833700   -1.348030   -1.582980
     21          1           0       -3.110190    0.596700   -2.052940
     22          1           0       -1.649010    0.137080   -2.766170
 ---------------------------------------------------------------------
                    Distance matrix (angstroms):
                    1          2          3          4          5
     1  C    0.000000
     2  O    1.424945   0.000000
     3  C    2.339456   1.368465   0.000000
     4  C    3.510714   2.390596   1.398691   0.000000
     5  N    4.661344   3.658108   2.429354   1.362580   0.000000
     6  C    4.900872   4.108514   2.741657   2.311759   1.349115
     7  C    4.215441   3.678144   2.408668   2.737447   2.411466
     8  C    2.883952   2.422111   1.394926   2.394010   2.801442
     9  C    3.993095   2.825149   2.488018   1.460799   2.392134
    10  N    4.960357   3.645972   3.430623   2.434316   3.102030
    11  S    5.752760   4.622193   4.726841   3.818743   4.532473
    12  N    5.132203   4.316679   4.512438   3.735723   4.556145
    13  C    4.132391   3.335337   3.339874   2.594299   3.472011
    14  N    3.867082   3.516314   3.517163   3.068255   3.852517
    15  H    1.094207   2.044331   3.234947   4.244404   5.494749
    16  H    1.095958   2.096240   2.534555   3.535549   4.528860
    17  H    1.094366   2.080438   2.791160   4.138253   5.169184
    18  H    5.966211   5.193600   3.827645   3.276185   2.061525
    19  H    4.935198   4.575902   3.399725   3.821635   3.382454
    20  H    2.743825   2.700390   2.165872   3.391683   3.886129
    21  H    4.635509   4.430588   4.522267   4.060749   4.757846
    22  H    3.832435   3.569687   3.257209   2.835584   3.384215
                    6          7          8          9         10
     6  C    0.000000
     7  C    1.385149   0.000000
     8  C    2.387689   1.393008   0.000000
     9  C    3.626377   4.197281   3.746347   0.000000
    10  N    4.345134   5.012537   4.632431   1.344031   0.000000
    11  S    5.843319   6.526185   6.044738   2.400697   1.666886
    12  N    5.831426   6.421476   5.852807   2.350709   2.565015
    13  C    4.665802   5.181007   4.626750   1.457753   2.352634
    14  N    4.825532   5.189976   4.621103   2.487467   3.631534
    15  H    5.884819   5.282511   3.949128   4.399071   5.262390
    16  H    4.719323   4.095708   2.949028   4.080771   5.240808
    17  H    5.159098   4.218193   2.863567   4.834592   5.723019
    18  H    1.086706   2.156831   3.385107   4.453377   5.054450
    19  H    2.149958   1.084795   2.161375   5.280939   6.065669
    20  H    3.370768   2.143958   1.085245   4.646175   5.506637
    21  H    5.738865   6.142940   5.599881   3.353296   4.353587
    22  H    4.178094   4.533761   4.128467   2.725822   4.006186
                   11         12         13         14         15
    11  S    0.000000
    12  N    1.668497   0.000000
    13  C    2.395272   1.332856   0.000000
    14  N    3.715702   2.342969   1.357156   0.000000
    15  H    5.773538   5.071699   4.288369   4.031190   0.000000
    16  H    5.990328   5.133050   4.019202   3.421946   1.770452
    17  H    6.654218   6.164898   5.151040   4.915710   1.768354
    18  H    6.522495   6.570386   5.463209   5.615932   6.957067
    19  H    7.600777   7.498955   6.246698   6.178065   6.025738
    20  H    6.863735   6.631036   5.429504   5.328860   3.795975
    21  H    4.092605   2.500725   2.011693   1.015380   4.643008
    22  H    4.408414   3.209707   2.048279   1.014722   4.229785
                   16         17         18         19         20
    16  H    0.000000
    17  H    1.802065   0.000000
    18  H    5.725494   6.196686   0.000000
    19  H    4.786506   4.744440   2.496691   0.000000
    20  H    2.927444   2.320683   4.285170   2.481644   0.000000
    21  H    4.125201   5.701571   6.461662   7.104513   6.271576
    22  H    3.194873   4.783389   4.915119   5.458288   4.868283
                   21         22
    21  H    0.000000
    22  H    1.689673   0.000000
 Stoichiometry    C8H8N4OS
 Framework group  C1[X(C8H8N4OS)]
 Deg. of freedom    60
 Full point group                 C1      NOp   1
 Largest Abelian subgroup         C1      NOp   1
 Largest concise Abelian subgroup C1      NOp   1
                         Standard orientation:                         
 ---------------------------------------------------------------------
 Center     Atomic      Atomic             Coordinates (Angstroms)
 Number     Number       Type             X           Y           Z
 ---------------------------------------------------------------------
      1          6           0       -1.595866    2.739650   -0.359500
      2          8           0       -0.987881    1.575950   -0.913235
      3          6           0       -1.498735    0.403188   -0.427072
      4          6           0       -0.627188   -0.619492   -0.038657
      5          7           0       -1.053078   -1.819164    0.447173
      6          6           0       -2.386129   -2.020589    0.497332
      7          6           0       -3.322146   -1.077966    0.104940
      8          6           0       -2.869563    0.152214   -0.366542
      9          6           0        0.820360   -0.426792   -0.076123
     10          7           0        1.561735   -1.028021   -1.022329
     11         16           0        3.125533   -0.525064   -0.739344
     12          7           0        2.895923    0.448356    0.596176
     13          6           0        1.588064    0.398578    0.848235
     14          7           0        1.051153    1.060033    1.904679
     15          1           0       -0.924510    3.584786   -0.539269
     16          1           0       -1.739817    2.648811    0.723159
     17          1           0       -2.545284    2.954300   -0.859667
     18          1           0       -2.693387   -2.994862    0.867890
     19          1           0       -4.382662   -1.301024    0.153237
     20          1           0       -3.591032    0.888273   -0.706330
     21          1           0        1.720884    1.399126    2.588398
     22          1           0        0.207418    0.692820    2.332379
 ---------------------------------------------------------------------
 Rotational constants (GHZ):           1.0733885           0.4598072           0.3894630
 Standard basis: 6-31G(d) (6D, 7F)
 There are   230 symmetry adapted cartesian basis functions of A   symmetry.
 There are   230 symmetry adapted basis functions of A   symmetry.
   230 basis functions,   448 primitive gaussians,   230 cartesian basis functions
    54 alpha electrons       54 beta electrons
       nuclear repulsion energy       973.6850623862 Hartrees.
 NAtoms=   22 NActive=   22 NUniq=   22 SFac= 1.00D+00 NAtFMM=   60 NAOKFM=F Big=F
 Integral buffers will be    131072 words long.
 Raffenetti 2 integral format.
 Two-electron integral symmetry is turned on.
 Nuclear repulsion after empirical dispersion term =      973.6382986816 Hartrees.
 One-electron integrals computed using PRISM.
 NBasis=   230 RedAO= T EigKep=  6.78D-04  NBF=   230
 NBsUse=   230 1.00D-06 EigRej= -1.00D+00 NBFU=   230
 ExpMin= 1.17D-01 ExpMax= 2.19D+04 ExpMxC= 3.30D+03 IAcc=3 IRadAn=         5 AccDes= 0.00D+00
 Harris functional with IExCor=  402 and IRadAn=       5 diagonalized for initial guess.
 HarFok:  IExCor=  402 AccDes= 0.00D+00 IRadAn=         5 IDoV= 1 UseB2=F ITyADJ=14
 ICtDFT=  3500011 ScaDFX=  1.000000  1.000000  1.000000  1.000000
 FoFCou: FMM=F IPFlag=           0 FMFlag=      100000 FMFlg1=           0
         NFxFlg=           0 DoJE=T BraDBF=F KetDBF=T FulRan=T
         wScrn=  0.000000 ICntrl=       500 IOpCl=  0 I1Cent=   200000004 NGrid=           0
         NMat0=    1 NMatS0=      1 NMatT0=    0 NMatD0=    1 NMtDS0=    0 NMtDT0=    0
 Petite list used in FoFCou.
 Keep R1 ints in memory in canonical form, NReq=359027475.
 Requested convergence on RMS density matrix=1.00D-08 within  32 cycles.
 Requested convergence on MAX density matrix=1.00D-06.
 Requested convergence on             energy=1.00D-06.
 No special actions if energy rises.
 Integral accuracy reduced to 1.0D-05 until final iterations.
 Initial convergence to 1.0D-05 achieved.  Increase integral accuracy.
 SCF Done:  E(RB3LYP) =  -1002.08868520     A.U. after   16 cycles
            NFock= 16  Conv=0.62D-08     -V/T= 2.0070
 QCSCF skips out because SCF is already converged.

 **********************************************************************

            Population analysis using the SCF density.

 **********************************************************************

 Orbital symmetries:
       Occupied  (A) (A) (A) (A) (A) (A) (A) (A) (A) (A) (A) (A)
                 (A) (A) (A) (A) (A) (A) (A) (A) (A) (A) (A) (A)
                 (A) (A) (A) (A) (A) (A) (A) (A) (A) (A) (A) (A)
                 (A) (A) (A) (A) (A) (A) (A) (A) (A) (A) (A) (A)
                 (A) (A) (A) (A) (A) (A)
       Virtual   (A) (A) (A) (A) (A) (A) (A) (A) (A) (A) (A) (A)
                 (A) (A) (A) (A) (A) (A) (A) (A) (A) (A) (A) (A)
                 (A) (A) (A) (A) (A) (A) (A) (A) (A) (A) (A) (A)
                 (A) (A) (A) (A) (A) (A) (A) (A) (A) (A) (A) (A)
                 (A) (A) (A) (A) (A) (A) (A) (A) (A) (A) (A) (A)
                 (A) (A) (A) (A) (A) (A) (A) (A) (A) (A) (A) (A)
                 (A) (A) (A) (A) (A) (A) (A) (A) (A) (A) (A) (A)
                 (A) (A) (A) (A) (A) (A) (A) (A) (A) (A) (A) (A)
                 (A) (A) (A) (A) (A) (A) (A) (A) (A) (A) (A) (A)
                 (A) (A) (A) (A) (A) (A) (A) (A) (A) (A) (A) (A)
                 (A) (A) (A) (A) (A) (A) (A) (A) (A) (A) (A) (A)
                 (A) (A) (A) (A) (A) (A) (A) (A) (A) (A) (A) (A)
                 (A) (A) (A) (A) (A) (A) (A) (A) (A) (A) (A) (A)
                 (A) (A) (A) (A) (A) (A) (A) (A) (A) (A) (A) (A)
                 (A) (A) (A) (A) (A) (A) (A) (A)
 The electronic state is 1-A.
 Alpha  occ. eigenvalues --  -88.93685 -19.18634 -14.36223 -14.35832 -14.34504
 Alpha  occ. eigenvalues --  -14.34274 -10.26856 -10.26500 -10.24896 -10.23891
 Alpha  occ. eigenvalues --  -10.23526 -10.22712 -10.21699 -10.21110  -7.99338
 Alpha  occ. eigenvalues --   -5.95927  -5.95363  -5.94931  -1.07488  -1.00072
 Alpha  occ. eigenvalues --   -0.94534  -0.92815  -0.86093  -0.81167  -0.78821
 Alpha  occ. eigenvalues --   -0.73334  -0.70926  -0.65545  -0.62500  -0.61120
 Alpha  occ. eigenvalues --   -0.58376  -0.54601  -0.52333  -0.51408  -0.49733
 Alpha  occ. eigenvalues --   -0.48911  -0.47979  -0.45436  -0.44698  -0.43031
 Alpha  occ. eigenvalues --   -0.41791  -0.40382  -0.39873  -0.36294  -0.36033
 Alpha  occ. eigenvalues --   -0.34004  -0.32768  -0.31873  -0.29453  -0.28452
 Alpha  occ. eigenvalues --   -0.28043  -0.26670  -0.24763  -0.21594
 Alpha virt. eigenvalues --   -0.04257  -0.03665  -0.01415   0.03024   0.05322
 Alpha virt. eigenvalues --    0.07304   0.08271   0.09154   0.11219   0.11886
 Alpha virt. eigenvalues --    0.12500   0.13795   0.14841   0.15272   0.16481
 Alpha virt. eigenvalues --    0.19666   0.23103   0.24975   0.25538   0.27337
 Alpha virt. eigenvalues --    0.28581   0.30010   0.32700   0.34651   0.35277
 Alpha virt. eigenvalues --    0.36158   0.36547   0.37756   0.42240   0.44275
 Alpha virt. eigenvalues --    0.48424   0.49752   0.50258   0.50985   0.52379
 Alpha virt. eigenvalues --    0.54540   0.54901   0.55785   0.56074   0.57461
 Alpha virt. eigenvalues --    0.58431   0.58953   0.59199   0.61148   0.62057
 Alpha virt. eigenvalues --    0.63879   0.64445   0.64869   0.66539   0.66990
 Alpha virt. eigenvalues --    0.69777   0.69824   0.71300   0.74032   0.74810
 Alpha virt. eigenvalues --    0.76192   0.77056   0.79085   0.80975   0.82395
 Alpha virt. eigenvalues --    0.83247   0.83972   0.84300   0.85666   0.86083
 Alpha virt. eigenvalues --    0.87737   0.89467   0.90215   0.90514   0.91854
 Alpha virt. eigenvalues --    0.92989   0.94553   0.96264   0.96970   0.98702
 Alpha virt. eigenvalues --    0.99814   1.03370   1.04344   1.05377   1.07470
 Alpha virt. eigenvalues --    1.08782   1.09958   1.11312   1.13240   1.16839
 Alpha virt. eigenvalues --    1.19094   1.19990   1.23153   1.25813   1.27090
 Alpha virt. eigenvalues --    1.33789   1.36195   1.37819   1.38452   1.40415
 Alpha virt. eigenvalues --    1.41833   1.44517   1.45342   1.47838   1.49418
 Alpha virt. eigenvalues --    1.51365   1.53626   1.58833   1.65009   1.69136
 Alpha virt. eigenvalues --    1.70468   1.72583   1.75403   1.77257   1.79336
 Alpha virt. eigenvalues --    1.80643   1.81554   1.84595   1.86726   1.87000
 Alpha virt. eigenvalues --    1.90243   1.91526   1.93360   1.95621   1.97064
 Alpha virt. eigenvalues --    2.00355   2.02877   2.04952   2.09812   2.12518
 Alpha virt. eigenvalues --    2.12756   2.14742   2.17897   2.19658   2.23202
 Alpha virt. eigenvalues --    2.24927   2.26557   2.27873   2.29439   2.31329
 Alpha virt. eigenvalues --    2.33129   2.34258   2.36150   2.38815   2.41003
 Alpha virt. eigenvalues --    2.46687   2.48006   2.51177   2.51759   2.54888
 Alpha virt. eigenvalues --    2.56080   2.58255   2.60909   2.66143   2.69193
 Alpha virt. eigenvalues --    2.70606   2.74118   2.75291   2.76932   2.80246
 Alpha virt. eigenvalues --    2.85693   2.91040   2.98886   3.05625   3.10539
 Alpha virt. eigenvalues --    3.21301   3.40683   3.83539   3.88443   3.97463
 Alpha virt. eigenvalues --    3.99397   4.05180   4.06769   4.12345   4.18978
 Alpha virt. eigenvalues --    4.20840   4.26892   4.37318   4.43251   4.56859
 Alpha virt. eigenvalues --    4.74303
          Condensed to atoms (all electrons):
               1          2          3          4          5          6
     1  C    4.907413   0.245148  -0.041279   0.001634  -0.000078   0.000026
     2  O    0.245148   8.222545   0.273782  -0.060298   0.002803   0.000047
     3  C   -0.041279   0.273782   4.670013   0.456750  -0.018261  -0.043241
     4  C    0.001634  -0.060298   0.456750   5.064507   0.431736  -0.061908
     5  N   -0.000078   0.002803  -0.018261   0.431736   6.787092   0.454277
     6  C    0.000026   0.000047  -0.043241  -0.061908   0.454277   4.796788
     7  C   -0.000020   0.004489  -0.005267  -0.033797  -0.021657   0.497628
     8  C   -0.007131  -0.070084   0.458694  -0.076282  -0.050633  -0.031282
     9  C    0.000112  -0.000756  -0.072164   0.227022  -0.083470   0.006423
    10  N    0.000013  -0.000995   0.000214  -0.072867  -0.001785   0.000170
    11  S    0.000001   0.000354   0.000152   0.009776   0.000088   0.000011
    12  N   -0.000018  -0.000026   0.000033   0.005947  -0.000002   0.000003
    13  C   -0.000297   0.001242  -0.000292  -0.061585   0.000014   0.000093
    14  N    0.000710  -0.000372  -0.001057  -0.000935  -0.000467  -0.000017
    15  H    0.383536  -0.030230   0.003814   0.000171   0.000002  -0.000001
    16  H    0.356964  -0.035265  -0.000632   0.002243  -0.000091  -0.000030
    17  H    0.367998  -0.038258  -0.007268  -0.000663   0.000007   0.000006
    18  H   -0.000000   0.000004   0.000932   0.005300  -0.051695   0.376113
    19  H   -0.000008  -0.000037   0.004390   0.000280   0.004779  -0.034910
    20  H    0.002862  -0.005804  -0.043027   0.005418  -0.000148   0.005092
    21  H    0.000004   0.000006   0.000016  -0.000289  -0.000002  -0.000001
    22  H   -0.000123  -0.000369   0.001449   0.008425   0.000897  -0.000050
               7          8          9         10         11         12
     1  C   -0.000020  -0.007131   0.000112   0.000013   0.000001  -0.000018
     2  O    0.004489  -0.070084  -0.000756  -0.000995   0.000354  -0.000026
     3  C   -0.005267   0.458694  -0.072164   0.000214   0.000152   0.000033
     4  C   -0.033797  -0.076282   0.227022  -0.072867   0.009776   0.005947
     5  N   -0.021657  -0.050633  -0.083470  -0.001785   0.000088  -0.000002
     6  C    0.497628  -0.031282   0.006423   0.000170   0.000011   0.000003
     7  C    4.950321   0.503949   0.000253   0.000006   0.000000  -0.000000
     8  C    0.503949   5.082315   0.007648  -0.000085   0.000021   0.000001
     9  C    0.000253   0.007648   5.043107   0.492701  -0.092725  -0.075597
    10  N    0.000006  -0.000085   0.492701   6.957807   0.235833  -0.059380
    11  S    0.000000   0.000021  -0.092725   0.235833  15.190450   0.228431
    12  N   -0.000000   0.000001  -0.075597  -0.059380   0.228431   7.055327
    13  C   -0.000023   0.000317   0.425681  -0.063348  -0.090567   0.494666
    14  N    0.000005  -0.000109  -0.074523   0.005046   0.009432  -0.094781
    15  H    0.000009   0.000041  -0.000052   0.000003  -0.000006   0.000002
    16  H   -0.000234   0.003816  -0.000182  -0.000000   0.000000   0.000001
    17  H   -0.000158   0.003533   0.000009  -0.000001   0.000001  -0.000000
    18  H   -0.064247   0.003813  -0.000257  -0.000001  -0.000000  -0.000000
    19  H    0.349897  -0.039530   0.000017  -0.000000   0.000000   0.000000
    20  H   -0.043229   0.356287  -0.000170   0.000000  -0.000000  -0.000000
    21  H   -0.000000   0.000001   0.005907  -0.000054  -0.000177  -0.000963
    22  H   -0.000050  -0.000006  -0.009192   0.000089  -0.000271   0.004050
              13         14         15         16         17         18
     1  C   -0.000297   0.000710   0.383536   0.356964   0.367998  -0.000000
     2  O    0.001242  -0.000372  -0.030230  -0.035265  -0.038258   0.000004
     3  C   -0.000292  -0.001057   0.003814  -0.000632  -0.007268   0.000932
     4  C   -0.061585  -0.000935   0.000171   0.002243  -0.000663   0.005300
     5  N    0.000014  -0.000467   0.000002  -0.000091   0.000007  -0.051695
     6  C    0.000093  -0.000017  -0.000001  -0.000030   0.000006   0.376113
     7  C   -0.000023   0.000005   0.000009  -0.000234  -0.000158  -0.064247
     8  C    0.000317  -0.000109   0.000041   0.003816   0.003533   0.003813
     9  C    0.425681  -0.074523  -0.000052  -0.000182   0.000009  -0.000257
    10  N   -0.063348   0.005046   0.000003  -0.000000  -0.000001  -0.000001
    11  S   -0.090567   0.009432  -0.000006   0.000000   0.000001  -0.000000
    12  N    0.494666  -0.094781   0.000002   0.000001  -0.000000  -0.000000
    13  C    4.594711   0.286103   0.000004  -0.000049   0.000009   0.000000
    14  N    0.286103   7.039737  -0.000040   0.001464   0.000032   0.000000
    15  H    0.000004  -0.000040   0.530640  -0.028119  -0.037151  -0.000000
    16  H   -0.000049   0.001464  -0.028119   0.591257  -0.044014  -0.000000
    17  H    0.000009   0.000032  -0.037151  -0.044014   0.603870   0.000000
    18  H    0.000000   0.000000  -0.000000  -0.000000   0.000000   0.586514
    19  H   -0.000000   0.000000  -0.000000  -0.000003   0.000009  -0.001908
    20  H    0.000001   0.000001  -0.000095   0.000859   0.001969  -0.000171
    21  H   -0.013333   0.307699   0.000001  -0.000019  -0.000000   0.000000
    22  H   -0.021327   0.312039   0.000008   0.000487  -0.000010  -0.000002
              19         20         21         22
     1  C   -0.000008   0.002862   0.000004  -0.000123
     2  O   -0.000037  -0.005804   0.000006  -0.000369
     3  C    0.004390  -0.043027   0.000016   0.001449
     4  C    0.000280   0.005418  -0.000289   0.008425
     5  N    0.004779  -0.000148  -0.000002   0.000897
     6  C   -0.034910   0.005092  -0.000001  -0.000050
     7  C    0.349897  -0.043229  -0.000000  -0.000050
     8  C   -0.039530   0.356287   0.000001  -0.000006
     9  C    0.000017  -0.000170   0.005907  -0.009192
    10  N   -0.000000   0.000000  -0.000054   0.000089
    11  S    0.000000  -0.000000  -0.000177  -0.000271
    12  N    0.000000  -0.000000  -0.000963   0.004050
    13  C   -0.000000   0.000001  -0.013333  -0.021327
    14  N    0.000000   0.000001   0.307699   0.312039
    15  H   -0.000000  -0.000095   0.000001   0.000008
    16  H   -0.000003   0.000859  -0.000019   0.000487
    17  H    0.000009   0.001969  -0.000000  -0.000010
    18  H   -0.001908  -0.000171   0.000000  -0.000002
    19  H    0.578139  -0.006048  -0.000000  -0.000001
    20  H   -0.006048   0.576264   0.000000  -0.000000
    21  H   -0.000000   0.000000   0.385304  -0.027151
    22  H   -0.000001  -0.000000  -0.027151   0.394545
 Mulliken charges:
               1
     1  C   -0.217466
     2  O   -0.507925
     3  C    0.362248
     4  C    0.149413
     5  N   -0.453406
     6  C    0.034764
     7  C   -0.137875
     8  C   -0.145294
     9  C    0.200207
    10  N   -0.493367
    11  S    0.509196
    12  N   -0.557692
    13  C    0.447980
    14  N   -0.789968
    15  H    0.177463
    16  H    0.151548
    17  H    0.150081
    18  H    0.145605
    19  H    0.144934
    20  H    0.149940
    21  H    0.343052
    22  H    0.336564
 Sum of Mulliken charges =  -0.00000
 Mulliken charges with hydrogens summed into heavy atoms:
               1
     1  C    0.261625
     2  O   -0.507925
     3  C    0.362248
     4  C    0.149413
     5  N   -0.453406
     6  C    0.180368
     7  C    0.007059
     8  C    0.004645
     9  C    0.200207
    10  N   -0.493367
    11  S    0.509196
    12  N   -0.557692
    13  C    0.447980
    14  N   -0.110352
 Electronic spatial extent (au):  <R**2>=           2941.4410
 Charge=             -0.0000 electrons
 Dipole moment (field-independent basis, Debye):
    X=             -4.5754    Y=              2.6683    Z=              2.6718  Tot=              5.9324
 Quadrupole moment (field-independent basis, Debye-Ang):
   XX=            -79.5471   YY=            -84.5204   ZZ=            -82.6593
   XY=             -1.3686   XZ=              0.8352   YZ=              0.8939
 Traceless Quadrupole moment (field-independent basis, Debye-Ang):
   XX=              2.6952   YY=             -2.2782   ZZ=             -0.4170
   XY=             -1.3686   XZ=              0.8352   YZ=              0.8939
 Octapole moment (field-independent basis, Debye-Ang**2):
  XXX=            -52.6916  YYY=             30.8460  ZZZ=             26.6948  XYY=            -18.5492
  XXY=             -4.9198  XXZ=             -6.6910  XZZ=              9.9959  YZZ=             12.5272
  YYZ=              2.4060  XYZ=              6.5407
 Hexadecapole moment (field-independent basis, Debye-Ang**3):
 XXXX=          -2399.7557 YYYY=           -902.4068 ZZZZ=           -361.8504 XXXY=             -4.5206
 XXXZ=            -18.3214 YYYX=            -10.4134 YYYZ=            -16.7993 ZZZX=             29.1144
 ZZZY=             29.2351 XXYY=           -536.7531 XXZZ=           -488.2482 YYZZ=           -227.6857
 XXYZ=            -11.7566 YYXZ=              2.1507 ZZXY=              8.5113
 N-N= 9.736382986816D+02 E-N=-4.298802923518D+03  KE= 9.951513553274D+02
 Calling FoFJK, ICntrl=      2127 FMM=F ISym2X=0 I1Cent= 0 IOpClX= 0 NMat=1 NMatS=1 NMatT=0.
 ***** Axes restored to original set *****
 -------------------------------------------------------------------
 Center     Atomic                   Forces (Hartrees/Bohr)
 Number     Number              X              Y              Z
 -------------------------------------------------------------------
      1        6           0.000257796    0.003301076    0.008864755
      2        8          -0.006498193    0.003570992   -0.007290726
      3        6           0.007743490   -0.004730417    0.001759722
      4        6           0.002046901   -0.000839749   -0.024534495
      5        7           0.014291636    0.005146538    0.013507710
      6        6          -0.016888794   -0.004940200   -0.002217977
      7        6           0.001662339    0.001816489    0.005554649
      8        6           0.007152341    0.000995946   -0.003048954
      9        6          -0.020279613   -0.018019399    0.014694529
     10        7           0.001134566    0.033150590   -0.004462451
     11       16          -0.008124023   -0.010314995    0.005982553
     12        7           0.017098611   -0.004875019   -0.007472013
     13        6          -0.008048488   -0.019619230    0.002041739
     14        7           0.006294333    0.025053507   -0.003979657
     15        1          -0.001269468   -0.003819375   -0.000563954
     16        1           0.001188128   -0.001903512   -0.001534534
     17        1           0.002235389    0.002189619   -0.001621453
     18        1           0.000417048    0.000648360   -0.000977948
     19        1           0.000653706    0.000330456    0.000160171
     20        1          -0.001635034    0.001390018    0.001498095
     21        1           0.001814809   -0.003275647    0.001196692
     22        1          -0.001247479   -0.005256047    0.002443547
 -------------------------------------------------------------------
 Cartesian Forces:  Max     0.033150590 RMS     0.009212279

 GradGradGradGradGradGradGradGradGradGradGradGradGradGradGradGradGradGrad
 Berny optimization.
 FormGI is forming the generalized inverse of G from B-inverse, IUseBI=4.
 Internal  Forces:  Max     0.021467359 RMS     0.005445787
 Search for a local minimum.
 Step number   1 out of a maximum of  111
 All quantities printed in internal units (Hartrees-Bohrs-Radians)
 Mixed Optimization -- RFO/linear search
 Second derivative matrix not updated -- first step.
 ITU=  0
     Eigenvalues ---    0.01285   0.01362   0.01503   0.01723   0.01851
     Eigenvalues ---    0.01949   0.02109   0.02131   0.02141   0.02155
     Eigenvalues ---    0.02170   0.02198   0.02233   0.02259   0.02287
     Eigenvalues ---    0.02312   0.04075   0.09961   0.10514   0.15993
     Eigenvalues ---    0.15999   0.16000   0.16000   0.16000   0.16000
     Eigenvalues ---    0.16000   0.16000   0.22081   0.23298   0.24890
     Eigenvalues ---    0.24951   0.24983   0.24995   0.24997   0.24999
     Eigenvalues ---    0.25000   0.25000   0.34133   0.34313   0.34331
     Eigenvalues ---    0.35196   0.35368   0.35421   0.35835   0.36865
     Eigenvalues ---    0.39064   0.39271   0.41724   0.42755   0.44238
     Eigenvalues ---    0.45083   0.45191   0.46372   0.47548   0.51267
     Eigenvalues ---    0.51273   0.53527   0.54011   0.54022   0.57330
 RFO step:  Lambda=-9.73320725D-03 EMin= 1.28450801D-02
 Linear search not attempted -- first point.
 Iteration  1 RMS(Cart)=  0.08062585 RMS(Int)=  0.00168246
 Iteration  2 RMS(Cart)=  0.00332355 RMS(Int)=  0.00023586
 Iteration  3 RMS(Cart)=  0.00000530 RMS(Int)=  0.00023584
 Iteration  4 RMS(Cart)=  0.00000000 RMS(Int)=  0.00023584
 Variable       Old X    -DE/DX   Delta X   Delta X   Delta X     New X
                                 (Linear)    (Quad)   (Total)
    R1        2.69276   0.00185   0.00000   0.00434   0.00434   2.69709
    R2        2.06775  -0.00112   0.00000  -0.00318  -0.00318   2.06457
    R3        2.07106  -0.00030   0.00000  -0.00086  -0.00086   2.07020
    R4        2.06805   0.00166   0.00000   0.00472   0.00472   2.07277
    R5        2.58602  -0.00027   0.00000  -0.00051  -0.00051   2.58551
    R6        2.64314   0.00349   0.00000   0.00700   0.00698   2.65012
    R7        2.63603   0.00136   0.00000   0.00386   0.00385   2.63988
    R8        2.57490  -0.01437   0.00000  -0.02813  -0.02815   2.54676
    R9        2.76051   0.01451   0.00000   0.03836   0.03836   2.79886
   R10        2.54946  -0.00974   0.00000  -0.01814  -0.01813   2.53133
   R11        2.61755   0.00830   0.00000   0.01723   0.01725   2.63480
   R12        2.05358   0.00074   0.00000   0.00203   0.00203   2.05561
   R13        2.63240  -0.00168   0.00000  -0.00214  -0.00213   2.63027
   R14        2.04997   0.00053   0.00000   0.00147   0.00147   2.05144
   R15        2.05082  -0.00001   0.00000  -0.00003  -0.00003   2.05078
   R16        2.53985  -0.02147   0.00000  -0.03875  -0.03879   2.50106
   R17        2.75475  -0.01173   0.00000  -0.03287  -0.03308   2.72167
   R18        3.14996  -0.00097   0.00000  -0.00146  -0.00127   3.14869
   R19        3.15300   0.00060   0.00000   0.00371   0.00384   3.15684
   R20        2.51873  -0.00838   0.00000  -0.01393  -0.01406   2.50467
   R21        2.56465   0.01711   0.00000   0.03140   0.03140   2.59605
   R22        1.91879  -0.00349   0.00000  -0.00758  -0.00758   1.91121
   R23        1.91755  -0.00348   0.00000  -0.00754  -0.00754   1.91001
    A1        1.88088  -0.00515   0.00000  -0.02896  -0.02900   1.85188
    A2        1.95222  -0.00268   0.00000  -0.01748  -0.01753   1.93468
    A3        1.93129   0.00404   0.00000   0.02404   0.02412   1.95541
    A4        1.88274   0.00356   0.00000   0.02032   0.02013   1.90287
    A5        1.88148   0.00212   0.00000   0.01598   0.01609   1.89757
    A6        1.93243  -0.00182   0.00000  -0.01316  -0.01310   1.91933
    A7        1.98509   0.01349   0.00000   0.05192   0.05192   2.03701
    A8        2.08593  -0.00966   0.00000  -0.03781  -0.03790   2.04803
    A9        2.13703   0.00632   0.00000   0.02386   0.02381   2.16085
   A10        2.05867   0.00339   0.00000   0.01526   0.01512   2.07379
   A11        2.15077  -0.00206   0.00000  -0.01020  -0.01030   2.14047
   A12        2.11051  -0.00568   0.00000  -0.02040  -0.02044   2.09007
   A13        2.02085   0.00776   0.00000   0.03141   0.03140   2.05225
   A14        2.04154   0.00524   0.00000   0.01459   0.01455   2.05609
   A15        2.15985  -0.00098   0.00000  -0.00471  -0.00474   2.15510
   A16        2.01076   0.00103   0.00000   0.00559   0.00554   2.01630
   A17        2.11256  -0.00005   0.00000  -0.00078  -0.00083   2.11173
   A18        2.06838  -0.00015   0.00000   0.00390   0.00389   2.07228
   A19        2.10376   0.00060   0.00000   0.00120   0.00118   2.10494
   A20        2.11097  -0.00045   0.00000  -0.00499  -0.00500   2.10596
   A21        2.08617  -0.00540   0.00000  -0.01766  -0.01770   2.06847
   A22        2.11496   0.00026   0.00000  -0.00543  -0.00544   2.10952
   A23        2.08168   0.00515   0.00000   0.02338   0.02338   2.10505
   A24        2.10093   0.00687   0.00000   0.02935   0.02947   2.13040
   A25        2.18987  -0.00481   0.00000  -0.01562  -0.01552   2.17435
   A26        1.99236  -0.00206   0.00000  -0.01383  -0.01416   1.97820
   A27        1.83692   0.01396   0.00000   0.05067   0.05077   1.88769
   A28        1.75465  -0.01796   0.00000  -0.06183  -0.06141   1.69324
   A29        1.83860   0.00938   0.00000   0.04099   0.04083   1.87944
   A30        2.00203  -0.00331   0.00000  -0.01539  -0.01602   1.98600
   A31        2.16664  -0.00290   0.00000  -0.00958  -0.00962   2.15702
   A32        2.11438   0.00623   0.00000   0.02563   0.02555   2.13993
   A33        2.01085  -0.00015   0.00000  -0.00441  -0.00469   2.00616
   A34        2.07222  -0.00610   0.00000  -0.03938  -0.03965   2.03257
   A35        1.96652   0.00401   0.00000   0.01907   0.01870   1.98522
    D1        2.81798  -0.00028   0.00000   0.01298   0.01323   2.83121
    D2        0.75138   0.00016   0.00000   0.01649   0.01628   0.76766
    D3       -1.41207   0.00148   0.00000   0.02852   0.02847  -1.38359
    D4       -2.34468  -0.00033   0.00000  -0.01257  -0.01270  -2.35737
    D5        0.85804  -0.00125   0.00000  -0.03882  -0.03870   0.81934
    D6       -3.13437  -0.00003   0.00000   0.00570   0.00605  -3.12832
    D7        0.05864  -0.00073   0.00000  -0.01504  -0.01449   0.04415
    D8       -0.05117   0.00098   0.00000   0.03118   0.03113  -0.02003
    D9       -3.14134   0.00028   0.00000   0.01044   0.01059  -3.13075
   D10        3.11025  -0.00015   0.00000   0.00422   0.00472   3.11497
   D11       -0.00127  -0.00048   0.00000  -0.00740  -0.00694  -0.00821
   D12        0.02887  -0.00062   0.00000  -0.01986  -0.01989   0.00898
   D13       -3.08265  -0.00095   0.00000  -0.03148  -0.03154  -3.11419
   D14        0.04461  -0.00080   0.00000  -0.02449  -0.02430   0.02031
   D15        3.13722  -0.00049   0.00000  -0.00607  -0.00556   3.13166
   D16       -1.86617  -0.00049   0.00000  -0.02455  -0.02445  -1.89062
   D17        1.26858  -0.00103   0.00000  -0.04265  -0.04254   1.22604
   D18        1.32319  -0.00089   0.00000  -0.04277  -0.04289   1.28030
   D19       -1.82525  -0.00144   0.00000  -0.06087  -0.06097  -1.88622
   D20       -0.01683   0.00014   0.00000   0.00649   0.00660  -0.01022
   D21        3.11815   0.00074   0.00000   0.02446   0.02457  -3.14047
   D22       -0.00290   0.00010   0.00000   0.00305   0.00298   0.00008
   D23        3.12528   0.00036   0.00000   0.01261   0.01264   3.13792
   D24       -3.13751  -0.00053   0.00000  -0.01595  -0.01595   3.12973
   D25       -0.00932  -0.00027   0.00000  -0.00640  -0.00630  -0.01562
   D26       -0.00356   0.00008   0.00000   0.00394   0.00397   0.00041
   D27        3.10854   0.00033   0.00000   0.01486   0.01509   3.12363
   D28       -3.13169  -0.00018   0.00000  -0.00570  -0.00574  -3.13744
   D29       -0.01959   0.00006   0.00000   0.00521   0.00538  -0.01421
   D30        3.11668  -0.00011   0.00000   0.00466   0.00507   3.12175
   D31       -0.01880   0.00039   0.00000   0.02084   0.02131   0.00251
   D32       -3.11373  -0.00053   0.00000  -0.02034  -0.02039  -3.13412
   D33        0.04600  -0.00176   0.00000  -0.06198  -0.06152  -0.01552
   D34        0.02139  -0.00102   0.00000  -0.03731  -0.03692  -0.01553
   D35       -3.10206  -0.00225   0.00000  -0.07894  -0.07806   3.10307
   D36        0.01096   0.00005   0.00000  -0.00273  -0.00307   0.00789
   D37        0.00050  -0.00049   0.00000  -0.01689  -0.01695  -0.01645
   D38       -0.01158   0.00087   0.00000   0.03128   0.03172   0.02014
   D39        3.11247   0.00196   0.00000   0.07116   0.07200  -3.09872
   D40        2.88527   0.00000   0.00000   0.01027   0.01062   2.89589
   D41        0.47547   0.00124   0.00000   0.03480   0.03492   0.51039
   D42       -0.23706  -0.00120   0.00000  -0.03349  -0.03362  -0.27068
   D43       -2.64686   0.00004   0.00000  -0.00897  -0.00931  -2.65618
         Item               Value     Threshold  Converged?
 Maximum Force            0.021467     0.000450     NO 
 RMS     Force            0.005446     0.000300     NO 
 Maximum Displacement     0.313478     0.001800     NO 
 RMS     Displacement     0.082477     0.001200     NO 
 Predicted change in Energy=-5.183650D-03
 GradGradGradGradGradGradGradGradGradGradGradGradGradGradGradGradGradGrad

                          Input orientation:                          
 ---------------------------------------------------------------------
 Center     Atomic      Atomic             Coordinates (Angstroms)
 Number     Number       Type             X           Y           Z
 ---------------------------------------------------------------------
      1          6           0        0.886074   -0.079470    0.007821
      2          8           0        0.400201   -1.363186   -0.383348
      3          6           0        0.714599   -1.780651   -1.647796
      4          6           0       -0.311770   -2.357853   -2.409430
      5          7           0       -0.117115   -2.818896   -3.660752
      6          6           0        1.117924   -2.734875   -4.172551
      7          6           0        2.200042   -2.187642   -3.484394
      8          6           0        1.996696   -1.700094   -2.196654
      9          6           0       -1.681892   -2.441320   -1.853153
     10          7           0       -2.215514   -3.590013   -1.469209
     11         16           0       -3.741496   -3.281010   -0.875774
     12          7           0       -3.727816   -1.629629   -1.127599
     13          6           0       -2.550220   -1.311129   -1.645818
     14          7           0       -2.191792   -0.015411   -1.928459
     15          1           0        0.292605    0.217659    0.875643
     16          1           0        0.739468    0.653538   -0.793012
     17          1           0        1.943332   -0.110565    0.298238
     18          1           0        1.232874   -3.116588   -5.184654
     19          1           0        3.182965   -2.146082   -3.943311
     20          1           0        2.820942   -1.282989   -1.627129
     21          1           0       -2.957965    0.644486   -1.948056
     22          1           0       -1.523791    0.114219   -2.675821
 ---------------------------------------------------------------------
                    Distance matrix (angstroms):
                    1          2          3          4          5
     1  C    0.000000
     2  O    1.427240   0.000000
     3  C    2.380019   1.368193   0.000000
     4  C    3.531142   2.366701   1.402385   0.000000
     5  N    4.687139   3.623270   2.412818   1.347686   0.000000
     6  C    4.957866   4.093252   2.729029   2.301036   1.339522
     7  C    4.285611   3.679081   2.396930   2.737466   2.408070
     8  C    2.952899   2.439340   1.396963   2.409758   2.804193
     9  C    3.954240   2.767275   2.494358   1.481096   2.420435
    10  N    4.911759   3.602752   3.448369   2.454888   3.130617
    11  S    5.696051   4.590663   4.764858   3.868764   4.594104
    12  N    4.998015   4.203026   4.475317   3.720587   4.568192
    13  C    4.007446   3.209600   3.298409   2.586386   3.500474
    14  N    3.636831   3.304889   3.412030   3.041849   3.894181
    15  H    1.092523   2.023785   3.246393   4.217847   5.474250
    16  H    1.095503   2.085689   2.580029   3.575805   4.584263
    17  H    1.096861   2.101159   2.843593   4.179385   5.220546
    18  H    6.025459   5.178832   3.816111   3.265497   2.057515
    19  H    5.015778   4.585851   3.390540   3.822409   3.379800
    20  H    2.804502   2.722757   2.164434   3.403118   3.889320
    21  H    4.373351   4.213827   4.411255   4.028554   4.795703
    22  H    3.612049   3.337650   3.107694   2.766062   3.398822
                    6          7          8          9         10
     6  C    0.000000
     7  C    1.394275   0.000000
     8  C    2.397327   1.391879   0.000000
     9  C    3.647568   4.218378   3.768211   0.000000
    10  N    4.376201   5.052203   4.673723   1.323503   0.000000
    11  S    5.897539   6.580442   6.096791   2.429468   1.666213
    12  N    5.828764   6.403543   5.823905   2.317558   2.499371
    13  C    4.676185   5.168523   4.596646   1.440248   2.310093
    14  N    4.835871   5.140790   4.522556   2.480061   3.604060
    15  H    5.906172   5.332327   4.002588   4.291286   5.127119
    16  H    4.800609   4.177214   3.015031   4.070016   5.215063
    17  H    5.249405   4.323015   2.958705   4.816965   5.703194
    18  H    1.087783   2.165465   3.393821   4.477806   5.091174
    19  H    2.159542   1.085573   2.157997   5.303089   6.111440
    20  H    3.389309   2.157162   1.085227   4.654925   5.541948
    21  H    5.742937   6.081638   5.487031   3.340594   4.325680
    22  H    4.163675   4.451886   3.989381   2.689342   3.956732
                   11         12         13         14         15
    11  S    0.000000
    12  N    1.670527   0.000000
    13  C    2.427454   1.325415   0.000000
    14  N    3.764819   2.367793   1.373770   0.000000
    15  H    5.619796   4.856874   4.095926   3.753602   0.000000
    16  H    5.963769   5.028063   3.925461   3.213878   1.781597
    17  H    6.614173   6.041729   5.041104   4.697497   1.779334
    18  H    6.583148   6.578692   5.485877   5.652295   6.980581
    19  H    7.658068   7.480230   6.232578   6.122695   6.096209
    20  H    6.900884   6.576923   5.371268   5.179290   3.861126
    21  H    4.144059   2.537207   2.020405   1.011370   4.326853
    22  H    4.436887   3.208695   2.036193   1.010732   3.990350
                   16         17         18         19         20
    16  H    0.000000
    17  H    1.795542   0.000000
    18  H    5.808943   6.293094   0.000000
    19  H    4.871646   4.865260   2.507123   0.000000
    20  H    2.962840   2.419052   4.305813   2.498137   0.000000
    21  H    3.873657   5.444139   6.494950   7.034154   6.100320
    22  H    2.993021   4.573456   4.932703   5.372992   4.682803
                   21         22
    21  H    0.000000
    22  H    1.693422   0.000000
 Stoichiometry    C8H8N4OS
 Framework group  C1[X(C8H8N4OS)]
 Deg. of freedom    60
 Full point group                 C1      NOp   1
 Largest Abelian subgroup         C1      NOp   1
 Largest concise Abelian subgroup C1      NOp   1
                         Standard orientation:                         
 ---------------------------------------------------------------------
 Center     Atomic      Atomic             Coordinates (Angstroms)
 Number     Number       Type             X           Y           Z
 ---------------------------------------------------------------------
      1          6           0       -1.435592    2.770079   -0.417396
      2          8           0       -0.908135    1.533481   -0.896592
      3          6           0       -1.498227    0.390915   -0.429382
      4          6           0       -0.652250   -0.650117   -0.020409
      5          7           0       -1.118873   -1.826569    0.442712
      6          6           0       -2.446574   -1.998890    0.485533
      7          6           0       -3.361768   -1.024641    0.088970
      8          6           0       -2.880437    0.195110   -0.377777
      9          6           0        0.816211   -0.459938   -0.053549
     10          7           0        1.583527   -1.068287   -0.943941
     11         16           0        3.158022   -0.587104   -0.687634
     12          7           0        2.854729    0.420883    0.609531
     13          6           0        1.548559    0.406131    0.834091
     14          7           0        0.956156    1.172450    1.808286
     15          1           0       -0.672337    3.524599   -0.621721
     16          1           0       -1.613703    2.725601    0.662616
     17          1           0       -2.358662    3.053065   -0.937939
     18          1           0       -2.782345   -2.960926    0.866344
     19          1           0       -4.429190   -1.215590    0.140141
     20          1           0       -3.565141    0.968782   -0.709935
     21          1           0        1.592018    1.555239    2.495325
     22          1           0        0.097772    0.813817    2.203431
 ---------------------------------------------------------------------
 Rotational constants (GHZ):           1.0831506           0.4642766           0.3875730
 Standard basis: 6-31G(d) (6D, 7F)
 There are   230 symmetry adapted cartesian basis functions of A   symmetry.
 There are   230 symmetry adapted basis functions of A   symmetry.
   230 basis functions,   448 primitive gaussians,   230 cartesian basis functions
    54 alpha electrons       54 beta electrons
       nuclear repulsion energy       975.5212919019 Hartrees.
 NAtoms=   22 NActive=   22 NUniq=   22 SFac= 1.00D+00 NAtFMM=   60 NAOKFM=F Big=F
 Integral buffers will be    131072 words long.
 Raffenetti 2 integral format.
 Two-electron integral symmetry is turned on.
 Nuclear repulsion after empirical dispersion term =      975.4741027381 Hartrees.
 One-electron integrals computed using PRISM.
 NBasis=   230 RedAO= T EigKep=  6.71D-04  NBF=   230
 NBsUse=   230 1.00D-06 EigRej= -1.00D+00 NBFU=   230
 Initial guess from the checkpoint file:  "JID_4177.chk"
 B after Tr=    -0.000000    0.000000   -0.000000
         Rot=    0.999856    0.012498    0.007519    0.008617 Ang=   1.94 deg.
 ExpMin= 1.17D-01 ExpMax= 2.19D+04 ExpMxC= 3.30D+03 IAcc=2 IRadAn=         4 AccDes= 0.00D+00
 Harris functional with IExCor=  402 and IRadAn=       4 diagonalized for initial guess.
 HarFok:  IExCor=  402 AccDes= 0.00D+00 IRadAn=         4 IDoV= 1 UseB2=F ITyADJ=14
 ICtDFT=  3500011 ScaDFX=  1.000000  1.000000  1.000000  1.000000
 FoFCou: FMM=F IPFlag=           0 FMFlag=      100000 FMFlg1=           0
         NFxFlg=           0 DoJE=T BraDBF=F KetDBF=T FulRan=T
         wScrn=  0.000000 ICntrl=       500 IOpCl=  0 I1Cent=   200000004 NGrid=           0
         NMat0=    1 NMatS0=      1 NMatT0=    0 NMatD0=    1 NMtDS0=    0 NMtDT0=    0
 Petite list used in FoFCou.
 Keep R1 ints in memory in canonical form, NReq=359027475.
 Requested convergence on RMS density matrix=1.00D-08 within  32 cycles.
 Requested convergence on MAX density matrix=1.00D-06.
 Requested convergence on             energy=1.00D-06.
 No special actions if energy rises.
 Integral accuracy reduced to 1.0D-05 until final iterations.
 Initial convergence to 1.0D-05 achieved.  Increase integral accuracy.
 SCF Done:  E(RB3LYP) =  -1002.09360430     A.U. after   13 cycles
            NFock= 13  Conv=0.86D-08     -V/T= 2.0070
 QCSCF skips out because SCF is already converged.
 Calling FoFJK, ICntrl=      2127 FMM=F ISym2X=0 I1Cent= 0 IOpClX= 0 NMat=1 NMatS=1 NMatT=0.
 ***** Axes restored to original set *****
 -------------------------------------------------------------------
 Center     Atomic                   Forces (Hartrees/Bohr)
 Number     Number              X              Y              Z
 -------------------------------------------------------------------
      1        6          -0.000422024   -0.000416967    0.002034735
      2        8          -0.001106393    0.000749219   -0.003739001
      3        6           0.002585070    0.001612436    0.005165420
      4        6          -0.001033255   -0.003367536   -0.009961987
      5        7           0.003412041    0.001417170    0.006115444
      6        6          -0.004155166   -0.000844274   -0.000953246
      7        6          -0.000204314   -0.000086773    0.000738790
      8        6           0.000515146    0.001060158   -0.000452441
      9        6          -0.004825725   -0.012961510    0.007579192
     10        7           0.006438845    0.001841499   -0.004159015
     11       16           0.006311267    0.004802594   -0.003602681
     12        7           0.002160035    0.007522102   -0.001418079
     13        6          -0.011348169   -0.005332258    0.003348022
     14        7           0.001406800    0.006907370    0.002265549
     15        1           0.000219679   -0.000875540   -0.000574445
     16        1           0.000355831   -0.000070208   -0.000316425
     17        1           0.000556034   -0.000439611   -0.001025506
     18        1           0.000863889    0.000211902    0.000070855
     19        1           0.000020916   -0.000105026   -0.000176087
     20        1          -0.000742805    0.000653620    0.000605102
     21        1          -0.000659014   -0.000534110   -0.000364541
     22        1          -0.000348688   -0.001744260   -0.001179656
 -------------------------------------------------------------------
 Cartesian Forces:  Max     0.012961510 RMS     0.003741212

 GradGradGradGradGradGradGradGradGradGradGradGradGradGradGradGradGradGrad
 Berny optimization.
 Using GEDIIS/GDIIS optimizer.
 FormGI is forming the generalized inverse of G from B-inverse, IUseBI=4.
 Internal  Forces:  Max     0.010596669 RMS     0.002499190
 Search for a local minimum.
 Step number   2 out of a maximum of  111
 All quantities printed in internal units (Hartrees-Bohrs-Radians)
 Mixed Optimization -- RFO/linear search
 Update second derivatives using D2CorX and points    1    2
 DE= -4.92D-03 DEPred=-5.18D-03 R= 9.49D-01
 TightC=F SS=  1.41D+00  RLast= 2.57D-01 DXNew= 5.0454D-01 7.7231D-01
 Trust test= 9.49D-01 RLast= 2.57D-01 DXMaxT set to 5.05D-01
 ITU=  1  0
 Use linear search instead of GDIIS.
     Eigenvalues ---    0.01264   0.01357   0.01506   0.01780   0.01845
     Eigenvalues ---    0.01958   0.02057   0.02126   0.02139   0.02168
     Eigenvalues ---    0.02198   0.02199   0.02235   0.02259   0.02287
     Eigenvalues ---    0.02318   0.04279   0.09938   0.10637   0.14936
     Eigenvalues ---    0.15998   0.16000   0.16000   0.16000   0.16000
     Eigenvalues ---    0.16000   0.16076   0.21704   0.22852   0.23363
     Eigenvalues ---    0.24912   0.24988   0.24992   0.24995   0.24997
     Eigenvalues ---    0.24998   0.31513   0.34134   0.34266   0.34324
     Eigenvalues ---    0.35194   0.35368   0.35417   0.35852   0.38687
     Eigenvalues ---    0.39092   0.41055   0.42305   0.42755   0.43808
     Eigenvalues ---    0.44935   0.45155   0.46221   0.46696   0.48946
     Eigenvalues ---    0.51629   0.52231   0.53759   0.54062   0.58128
 RFO step:  Lambda=-2.43216561D-03 EMin= 1.26427862D-02
 Quartic linear search produced a step of  0.00366.
 Iteration  1 RMS(Cart)=  0.04262085 RMS(Int)=  0.00072463
 Iteration  2 RMS(Cart)=  0.00155159 RMS(Int)=  0.00013254
 Iteration  3 RMS(Cart)=  0.00000114 RMS(Int)=  0.00013254
 Iteration  4 RMS(Cart)=  0.00000000 RMS(Int)=  0.00013254
 Variable       Old X    -DE/DX   Delta X   Delta X   Delta X     New X
                                 (Linear)    (Quad)   (Total)
    R1        2.69709  -0.00135   0.00002  -0.00219  -0.00217   2.69492
    R2        2.06457  -0.00081  -0.00001  -0.00309  -0.00310   2.06147
    R3        2.07020   0.00014  -0.00000   0.00020   0.00019   2.07039
    R4        2.07277   0.00028   0.00002   0.00190   0.00191   2.07468
    R5        2.58551  -0.00358  -0.00000  -0.00704  -0.00704   2.57847
    R6        2.65012   0.00234   0.00003   0.00659   0.00659   2.65671
    R7        2.63988  -0.00108   0.00001  -0.00110  -0.00110   2.63877
    R8        2.54676  -0.00568  -0.00010  -0.01764  -0.01775   2.52900
    R9        2.79886   0.00170   0.00014   0.01349   0.01363   2.81250
   R10        2.53133  -0.00222  -0.00007  -0.00846  -0.00852   2.52281
   R11        2.63480   0.00105   0.00006   0.00624   0.00633   2.64112
   R12        2.05561  -0.00005   0.00001   0.00034   0.00034   2.05595
   R13        2.63027   0.00008  -0.00001   0.00006   0.00006   2.63033
   R14        2.05144   0.00009   0.00001   0.00059   0.00060   2.05203
   R15        2.05078   0.00000  -0.00000   0.00000   0.00000   2.05079
   R16        2.50106  -0.01060  -0.00014  -0.02790  -0.02803   2.47303
   R17        2.72167   0.00790  -0.00012   0.01295   0.01287   2.73454
   R18        3.14869  -0.00108  -0.00000  -0.00281  -0.00284   3.14585
   R19        3.15684  -0.00040   0.00001   0.00022   0.00022   3.15706
   R20        2.50467  -0.00933  -0.00005  -0.01904  -0.01907   2.48560
   R21        2.59605   0.00432   0.00011   0.01534   0.01545   2.61150
   R22        1.91121   0.00016  -0.00003  -0.00142  -0.00145   1.90976
   R23        1.91001   0.00042  -0.00003  -0.00084  -0.00087   1.90914
    A1        1.85188  -0.00049  -0.00011  -0.00853  -0.00864   1.84324
    A2        1.93468   0.00003  -0.00006  -0.00442  -0.00450   1.93018
    A3        1.95541  -0.00099   0.00009  -0.00126  -0.00119   1.95422
    A4        1.90287   0.00076   0.00007   0.01074   0.01080   1.91366
    A5        1.89757   0.00102   0.00006   0.01092   0.01098   1.90855
    A6        1.91933  -0.00024  -0.00005  -0.00661  -0.00668   1.91264
    A7        2.03701  -0.00003   0.00019   0.01192   0.01211   2.04912
    A8        2.04803  -0.00035  -0.00014  -0.01049  -0.01060   2.03743
    A9        2.16085   0.00027   0.00009   0.00631   0.00642   2.16727
   A10        2.07379   0.00008   0.00006   0.00446   0.00442   2.07821
   A11        2.14047   0.00009  -0.00004  -0.00272  -0.00283   2.13764
   A12        2.09007  -0.00265  -0.00007  -0.01487  -0.01491   2.07516
   A13        2.05225   0.00256   0.00011   0.01774   0.01789   2.07014
   A14        2.05609   0.00133   0.00005   0.00702   0.00702   2.06311
   A15        2.15510  -0.00047  -0.00002  -0.00345  -0.00347   2.15163
   A16        2.01630   0.00115   0.00002   0.00806   0.00808   2.02438
   A17        2.11173  -0.00068  -0.00000  -0.00464  -0.00465   2.10708
   A18        2.07228   0.00014   0.00001   0.00275   0.00275   2.07503
   A19        2.10494  -0.00026   0.00000  -0.00180  -0.00179   2.10315
   A20        2.10596   0.00012  -0.00002  -0.00094  -0.00095   2.10501
   A21        2.06847  -0.00117  -0.00006  -0.00765  -0.00776   2.06071
   A22        2.10952  -0.00048  -0.00002  -0.00598  -0.00597   2.10354
   A23        2.10505   0.00164   0.00009   0.01368   0.01379   2.11884
   A24        2.13040  -0.00098   0.00011   0.00356   0.00358   2.13398
   A25        2.17435  -0.00298  -0.00006  -0.01480  -0.01494   2.15941
   A26        1.97820   0.00397  -0.00005   0.01165   0.01159   1.98979
   A27        1.88769  -0.00769   0.00019  -0.01889  -0.01871   1.86898
   A28        1.69324   0.00841  -0.00022   0.02015   0.01986   1.71310
   A29        1.87944  -0.00792   0.00015  -0.02120  -0.02103   1.85841
   A30        1.98600   0.00324  -0.00006   0.00845   0.00840   1.99441
   A31        2.15702  -0.00065  -0.00004  -0.00462  -0.00472   2.15229
   A32        2.13993  -0.00260   0.00009  -0.00416  -0.00414   2.13579
   A33        2.00616  -0.00053  -0.00002  -0.01101  -0.01158   1.99458
   A34        2.03257  -0.00272  -0.00015  -0.03243  -0.03313   1.99944
   A35        1.98522   0.00118   0.00007   0.00257   0.00184   1.98706
    D1        2.83121   0.00057   0.00005   0.03366   0.03371   2.86492
    D2        0.76766  -0.00006   0.00006   0.02819   0.02826   0.79592
    D3       -1.38359   0.00096   0.00010   0.04092   0.04100  -1.34259
    D4       -2.35737  -0.00173  -0.00005  -0.07593  -0.07599  -2.43336
    D5        0.81934  -0.00182  -0.00014  -0.08536  -0.08549   0.73385
    D6       -3.12832   0.00043   0.00002   0.01963   0.01970  -3.10862
    D7        0.04415   0.00036  -0.00005   0.01319   0.01323   0.05738
    D8       -0.02003   0.00053   0.00011   0.02864   0.02876   0.00873
    D9       -3.13075   0.00045   0.00004   0.02220   0.02229  -3.10846
   D10        3.11497  -0.00028   0.00002  -0.01012  -0.01004   3.10493
   D11       -0.00821  -0.00032  -0.00003  -0.01374  -0.01370  -0.02191
   D12        0.00898  -0.00037  -0.00007  -0.01941  -0.01947  -0.01049
   D13       -3.11419  -0.00041  -0.00012  -0.02303  -0.02313  -3.13733
   D14        0.02031  -0.00038  -0.00009  -0.02120  -0.02124  -0.00093
   D15        3.13166  -0.00039  -0.00002  -0.01543  -0.01533   3.11632
   D16       -1.89062  -0.00094  -0.00009  -0.06318  -0.06323  -1.95385
   D17        1.22604  -0.00045  -0.00016  -0.04085  -0.04103   1.18502
   D18        1.28030  -0.00098  -0.00016  -0.06897  -0.06911   1.21119
   D19       -1.88622  -0.00048  -0.00022  -0.04664  -0.04691  -1.93313
   D20       -0.01022   0.00008   0.00002   0.00526   0.00532  -0.00490
   D21       -3.14047   0.00008   0.00009   0.00888   0.00902  -3.13146
   D22        0.00008   0.00004   0.00001   0.00268   0.00269   0.00276
   D23        3.13792   0.00005   0.00005   0.00517   0.00522  -3.14004
   D24        3.12973   0.00005  -0.00006  -0.00105  -0.00110   3.12863
   D25       -0.01562   0.00006  -0.00002   0.00144   0.00144  -0.01418
   D26        0.00041   0.00009   0.00001   0.00469   0.00471   0.00511
   D27        3.12363   0.00010   0.00006   0.00808   0.00818   3.13181
   D28       -3.13744   0.00008  -0.00002   0.00220   0.00217  -3.13527
   D29       -0.01421   0.00009   0.00002   0.00559   0.00565  -0.00856
   D30        3.12175   0.00015   0.00002   0.01325   0.01353   3.13528
   D31        0.00251  -0.00021   0.00008  -0.00643  -0.00634  -0.00383
   D32       -3.13412  -0.00010  -0.00007  -0.01058  -0.01052   3.13854
   D33       -0.01552  -0.00029  -0.00023  -0.02670  -0.02686  -0.04238
   D34       -0.01553   0.00030  -0.00014   0.00997   0.00996  -0.00557
   D35        3.10307   0.00012  -0.00029  -0.00615  -0.00638   3.09669
   D36        0.00789   0.00001  -0.00001   0.00148   0.00148   0.00937
   D37       -0.01645   0.00020  -0.00006   0.00419   0.00410  -0.01235
   D38        0.02014  -0.00041   0.00012  -0.00857  -0.00838   0.01176
   D39       -3.09872  -0.00025   0.00026   0.00738   0.00780  -3.09091
   D40        2.89589  -0.00076   0.00004  -0.00877  -0.00849   2.88740
   D41        0.51039   0.00122   0.00013   0.03953   0.03938   0.54977
   D42       -0.27068  -0.00089  -0.00012  -0.02612  -0.02597  -0.29665
   D43       -2.65618   0.00109  -0.00003   0.02217   0.02190  -2.63428
         Item               Value     Threshold  Converged?
 Maximum Force            0.010597     0.000450     NO 
 RMS     Force            0.002499     0.000300     NO 
 Maximum Displacement     0.186101     0.001800     NO 
 RMS     Displacement     0.043053     0.001200     NO 
 Predicted change in Energy=-1.267271D-03
 GradGradGradGradGradGradGradGradGradGradGradGradGradGradGradGradGradGrad

                          Input orientation:                          
 ---------------------------------------------------------------------
 Center     Atomic      Atomic             Coordinates (Angstroms)
 Number     Number       Type             X           Y           Z
 ---------------------------------------------------------------------
      1          6           0        0.875306   -0.083091    0.011360
      2          8           0        0.357832   -1.341329   -0.416180
      3          6           0        0.695781   -1.766870   -1.667770
      4          6           0       -0.318342   -2.383139   -2.421590
      5          7           0       -0.103986   -2.876134   -3.647162
      6          6           0        1.122745   -2.772153   -4.163480
      7          6           0        2.189545   -2.170124   -3.490539
      8          6           0        1.974724   -1.652409   -2.216477
      9          6           0       -1.690257   -2.464926   -1.850426
     10          7           0       -2.232861   -3.601832   -1.495968
     11         16           0       -3.749971   -3.256227   -0.904197
     12          7           0       -3.717706   -1.600172   -1.122105
     13          6           0       -2.539926   -1.313949   -1.632974
     14          7           0       -2.140685   -0.016236   -1.890512
     15          1           0        0.278297    0.200210    0.879317
     16          1           0        0.759449    0.669087   -0.776773
     17          1           0        1.931593   -0.151048    0.302848
     18          1           0        1.254181   -3.175888   -5.165173
     19          1           0        3.169522   -2.108792   -3.954262
     20          1           0        2.776068   -1.184508   -1.653769
     21          1           0       -2.896640    0.654029   -1.914953
     22          1           0       -1.486319    0.078003   -2.654433
 ---------------------------------------------------------------------
                    Distance matrix (angstroms):
                    1          2          3          4          5
     1  C    0.000000
     2  O    1.426090   0.000000
     3  C    2.384705   1.364468   0.000000
     4  C    3.554470   2.358865   1.405873   0.000000
     5  N    4.705835   3.606681   2.405845   1.338291   0.000000
     6  C    4.972079   4.083455   2.724236   2.293959   1.335015
     7  C    4.283250   3.673385   2.390906   2.734507   2.404842
     8  C    2.938492   2.439709   1.396379   2.415407   2.804532
     9  C    3.965034   2.741204   2.492754   1.488310   2.431792
    10  N    4.930951   3.603818   3.460282   2.450994   3.112295
    11  S    5.683329   4.558403   4.750363   3.852382   4.578378
    12  N    4.968101   4.144313   4.450214   3.722549   4.589441
    13  C    3.985304   3.142982   3.267438   2.588535   3.525788
    14  N    3.566201   3.189375   3.340641   3.034008   3.925937
    15  H    1.090884   2.015188   3.245204   4.233870   5.486260
    16  H    1.095605   2.081609   2.594575   3.630859   4.642548
    17  H    1.097874   2.100118   2.832216   4.179354   5.212701
    18  H    6.041973   5.169331   3.811689   3.260143   2.058841
    19  H    5.009296   4.583953   3.385905   3.819627   3.376238
    20  H    2.756569   2.721045   2.160308   3.406117   3.889720
    21  H    4.299024   4.101141   4.339049   4.016054   4.823020
    22  H    3.565064   3.228803   3.023016   2.734155   3.409294
                    6          7          8          9         10
     6  C    0.000000
     7  C    1.397623   0.000000
     8  C    2.402190   1.391910   0.000000
     9  C    3.654804   4.222528   3.771772   0.000000
    10  N    4.366243   5.058239   4.692883   1.308669   0.000000
    11  S    5.882229   6.568610   6.088222   2.400819   1.664710
    12  N    5.835535   6.389831   5.796907   2.321379   2.520155
    13  C    4.684547   5.152813   4.564766   1.447056   2.312460
    14  N    4.838537   5.094136   4.440711   2.490095   3.608415
    15  H    5.914206   5.326068   3.986728   4.292977   5.138426
    16  H    4.841890   4.179812   2.989814   4.120173   5.264210
    17  H    5.241423   4.304996   2.933077   4.807121   5.699678
    18  H    1.087964   2.165840   3.396318   4.490294   5.079760
    19  H    2.161739   1.085889   2.157713   5.307581   6.120304
    20  H    3.398932   2.165450   1.085229   4.650398   5.563967
    21  H    5.740214   6.027238   5.398219   3.344758   4.327645
    22  H    4.148232   4.389206   3.894220   2.674791   3.929447
                   11         12         13         14         15
    11  S    0.000000
    12  N    1.670643   0.000000
    13  C    2.401619   1.315324   0.000000
    14  N    3.749688   2.363534   1.381947   0.000000
    15  H    5.599538   4.818205   4.067759   3.683786   0.000000
    16  H    5.979900   5.031272   3.943524   3.181330   1.787173
    17  H    6.586294   6.003751   5.009414   4.627360   1.785801
    18  H    6.572969   6.599162   5.508039   5.677317   6.991870
    19  H    7.648457   7.464162   6.214334   6.069280   6.087213
    20  H    6.887892   6.528747   5.317610   5.059186   3.817437
    21  H    4.127943   2.526693   2.019826   1.010604   4.253719
    22  H    4.393693   3.184868   2.022621   1.010273   3.951733
                   16         17         18         19         20
    16  H    0.000000
    17  H    1.792240   0.000000
    18  H    5.855480   6.285523   0.000000
    19  H    4.860196   4.846464   2.504702   0.000000
    20  H    2.876054   2.368444   4.314127   2.510254   0.000000
    21  H    3.829186   5.373884   6.516250   6.970674   5.968924
    22  H    2.986379   4.525495   4.939835   5.305515   4.556666
                   21         22
    21  H    0.000000
    22  H    1.693411   0.000000
 Stoichiometry    C8H8N4OS
 Framework group  C1[X(C8H8N4OS)]
 Deg. of freedom    60
 Full point group                 C1      NOp   1
 Largest Abelian subgroup         C1      NOp   1
 Largest concise Abelian subgroup C1      NOp   1
                         Standard orientation:                         
 ---------------------------------------------------------------------
 Center     Atomic      Atomic             Coordinates (Angstroms)
 Number     Number       Type             X           Y           Z
 ---------------------------------------------------------------------
      1          6           0       -1.420283    2.768458   -0.462991
      2          8           0       -0.877786    1.515406   -0.874440
      3          6           0       -1.488122    0.385220   -0.414070
      4          6           0       -0.648651   -0.673609   -0.025940
      5          7           0       -1.125161   -1.846802    0.407165
      6          6           0       -2.449204   -2.005733    0.469743
[...]
   150    C    7  dxy    Ryd( 3d)     0.00036       2.81117
   151    C    7  dxz    Ryd( 3d)     0.00019       1.80696
   152    C    7  dyz    Ryd( 3d)     0.00026       1.94269
   153    C    7  dx2y2  Ryd( 3d)     0.00035       2.76597
   154    C    7  dz2    Ryd( 3d)     0.00026       2.14929
 
   155    C    8  S      Cor( 1S)     0.99953      -9.90879
   156    C    8  S      Val( 2S)     0.47137      -0.04871
   157    C    8  S      Ryd( 3S)     0.00048       1.23366
   158    C    8  S      Ryd( 4S)     0.00102       4.77443
   159    C    8  S      Ryd( 5S)     0.00004      13.06706
   160    C    8  px     Val( 2p)     0.55598       0.06549
   161    C    8  px     Ryd( 3p)     0.00227       1.75179
   162    C    8  px     Ryd( 4p)     0.00036       2.25939
   163    C    8  px     Ryd( 5p)     0.00006       2.79250
   164    C    8  py     Val( 2p)     0.56608       0.05762
   165    C    8  py     Ryd( 3p)     0.00193       1.89579
   166    C    8  py     Ryd( 4p)     0.00045       2.45785
   167    C    8  py     Ryd( 5p)     0.00006       2.66631
   168    C    8  pz     Val( 2p)     0.51859       0.01089
   169    C    8  pz     Ryd( 3p)     0.00100       0.63486
   170    C    8  pz     Ryd( 4p)     0.00022       0.70067
   171    C    8  pz     Ryd( 5p)     0.00002       2.77298
   172    C    8  dxy    Ryd( 3d)     0.00035       2.71517
   173    C    8  dxz    Ryd( 3d)     0.00026       1.84684
   174    C    8  dyz    Ryd( 3d)     0.00024       1.90408
   175    C    8  dx2y2  Ryd( 3d)     0.00037       3.06905
   176    C    8  dz2    Ryd( 3d)     0.00025       2.16728
 
   177    C    9  S      Cor( 1S)     0.99951      -9.93193
   178    C    9  S      Val( 2S)     0.42311       0.00880
   179    C    9  S      Ryd( 3S)     0.00211       2.17022
   180    C    9  S      Ryd( 4S)     0.00129       2.79419
   181    C    9  S      Ryd( 5S)     0.00002      22.51098
   182    C    9  px     Val( 2p)     0.51524       0.07685
   183    C    9  px     Ryd( 3p)     0.00183       1.62853
   184    C    9  px     Ryd( 4p)     0.00078       1.84703
   185    C    9  px     Ryd( 5p)     0.00016       3.41543
   186    C    9  py     Val( 2p)     0.49502       0.05719
   187    C    9  py     Ryd( 4p)     0.00472       0.98688
   188    C    9  py     Ryd( 3p)     0.00098       0.67693
   189    C    9  py     Ryd( 5p)     0.00005       3.13034
   190    C    9  pz     Val( 2p)     0.49133       0.06111
   191    C    9  pz     Ryd( 4p)     0.00342       0.86966
   192    C    9  pz     Ryd( 3p)     0.00096       0.50643
   193    C    9  pz     Ryd( 5p)     0.00008       3.10034
   194    C    9  dxy    Ryd( 3d)     0.00051       2.38312
   195    C    9  dxz    Ryd( 3d)     0.00059       2.32907
   196    C    9  dyz    Ryd( 3d)     0.00039       2.27070
   197    C    9  dx2y2  Ryd( 3d)     0.00058       2.32819
   198    C    9  dz2    Ryd( 3d)     0.00049       2.00091
 
   199    N   10  S      Cor( 1S)     0.99969     -13.99908
   200    N   10  S      Val( 2S)     0.74441      -0.44409
   201    N   10  S      Ryd( 3S)     0.00206       0.79100
   202    N   10  S      Ryd( 4S)     0.00056       1.75077
   203    N   10  S      Ryd( 5S)     0.00000      35.44387
   204    N   10  px     Val( 2p)     0.58315      -0.06928
   205    N   10  px     Ryd( 3p)     0.00175       0.94414
   206    N   10  px     Ryd( 4p)     0.00013       0.94941
   207    N   10  px     Ryd( 5p)     0.00008       4.21411
   208    N   10  py     Val( 2p)     0.68672      -0.06494
   209    N   10  py     Ryd( 3p)     0.00123       0.81847
   210    N   10  py     Ryd( 4p)     0.00022       0.85475
   211    N   10  py     Ryd( 5p)     0.00005       4.05386
   212    N   10  pz     Val( 2p)     0.69473      -0.06663
   213    N   10  pz     Ryd( 4p)     0.00146       0.80221
   214    N   10  pz     Ryd( 3p)     0.00020       0.79996
   215    N   10  pz     Ryd( 5p)     0.00005       4.09590
   216    N   10  dxy    Ryd( 3d)     0.00080       2.54278
   217    N   10  dxz    Ryd( 3d)     0.00061       2.62662
   218    N   10  dyz    Ryd( 3d)     0.00084       2.69814
   219    N   10  dx2y2  Ryd( 3d)     0.00093       2.50612
   220    N   10  dz2    Ryd( 3d)     0.00103       2.44499
 
   221    S   11  S      Cor( 1S)     1.00000     -87.67209
   222    S   11  S      Cor( 2S)     0.99972      -8.71020
   223    S   11  S      Val( 3S)     0.82587      -0.56927
   224    S   11  S      Ryd( 5S)     0.00519       0.86425
   225    S   11  S      Ryd( 4S)     0.00003       0.72962
   226    S   11  S      Ryd( 6S)     0.00000      15.36665
   227    S   11  S      Ryd( 7S)     0.00000     181.69830
   228    S   11  px     Cor( 2p)     0.99993      -5.79880
   229    S   11  px     Val( 3p)     0.56105      -0.05614
   230    S   11  px     Ryd( 4p)     0.00254       0.49062
   231    S   11  px     Ryd( 5p)     0.00024       1.09599
   232    S   11  px     Ryd( 6p)     0.00008       1.41608
   233    S   11  px     Ryd( 7p)     0.00000      16.91559
   234    S   11  py     Cor( 2p)     0.99995      -5.79847
   235    S   11  py     Val( 3p)     0.61602      -0.07069
   236    S   11  py     Ryd( 4p)     0.00456       0.45523
   237    S   11  py     Ryd( 5p)     0.00026       1.11791
   238    S   11  py     Ryd( 6p)     0.00006       1.36754
   239    S   11  py     Ryd( 7p)     0.00000      16.93495
   240    S   11  pz     Cor( 2p)     0.99995      -5.79786
   241    S   11  pz     Val( 3p)     0.61023      -0.06800
   242    S   11  pz     Ryd( 4p)     0.00400       0.46124
   243    S   11  pz     Ryd( 5p)     0.00024       1.07287
   244    S   11  pz     Ryd( 6p)     0.00006       1.39355
   245    S   11  pz     Ryd( 7p)     0.00000      16.93653
   246    S   11  dxy    Ryd( 3d)     0.00359       1.15465
   247    S   11  dxz    Ryd( 3d)     0.00352       1.14633
   248    S   11  dyz    Ryd( 3d)     0.00320       1.34351
   249    S   11  dx2y2  Ryd( 3d)     0.00413       1.33039
   250    S   11  dz2    Ryd( 3d)     0.00374       1.14330
 
   251    N   12  S      Cor( 1S)     0.99968     -14.00930
   252    N   12  S      Val( 2S)     0.74957      -0.46222
   253    N   12  S      Ryd( 3S)     0.00432       0.57494
   254    N   12  S      Ryd( 4S)     0.00057       1.76149
   255    N   12  S      Ryd( 5S)     0.00000      35.45060
   256    N   12  px     Val( 2p)     0.71833      -0.08467
   257    N   12  px     Ryd( 4p)     0.00193       0.86449
   258    N   12  px     Ryd( 3p)     0.00013       0.74936
   259    N   12  px     Ryd( 5p)     0.00006       4.27072
   260    N   12  py     Val( 2p)     0.68941      -0.08582
   261    N   12  py     Ryd( 4p)     0.00099       0.81524
   262    N   12  py     Ryd( 3p)     0.00040       0.79372
   263    N   12  py     Ryd( 5p)     0.00006       4.01899
   264    N   12  pz     Val( 2p)     0.66400      -0.08636
   265    N   12  pz     Ryd( 4p)     0.00132       0.84084
   266    N   12  pz     Ryd( 3p)     0.00037       0.82184
   267    N   12  pz     Ryd( 5p)     0.00006       4.03819
   268    N   12  dxy    Ryd( 3d)     0.00075       2.46486
   269    N   12  dxz    Ryd( 3d)     0.00070       2.51117
   270    N   12  dyz    Ryd( 3d)     0.00120       2.49357
   271    N   12  dx2y2  Ryd( 3d)     0.00082       2.83955
   272    N   12  dz2    Ryd( 3d)     0.00071       2.39742
 
   273    C   13  S      Cor( 1S)     0.99954      -9.98079
   274    C   13  S      Val( 2S)     0.40344       0.00419
   275    C   13  S      Ryd( 4S)     0.00287       0.77340
   276    C   13  S      Ryd( 3S)     0.00071       0.67670
   277    C   13  S      Ryd( 5S)     0.00003      22.70420
   278    C   13  px     Val( 2p)     0.46137       0.07480
   279    C   13  px     Ryd( 3p)     0.00376       1.07862
   280    C   13  px     Ryd( 4p)     0.00012       1.26191
   281    C   13  px     Ryd( 5p)     0.00009       2.46322
   282    C   13  py     Val( 2p)     0.47724       0.04293
   283    C   13  py     Ryd( 3p)     0.00244       0.99792
   284    C   13  py     Ryd( 4p)     0.00021       1.10223
   285    C   13  py     Ryd( 5p)     0.00008       2.24591
   286    C   13  pz     Val( 2p)     0.47195       0.04438
   287    C   13  pz     Ryd( 3p)     0.00168       1.01844
   288    C   13  pz     Ryd( 4p)     0.00011       1.09644
   289    C   13  pz     Ryd( 5p)     0.00012       2.25365
   290    C   13  dxy    Ryd( 3d)     0.00104       2.15626
   291    C   13  dxz    Ryd( 3d)     0.00088       2.23919
   292    C   13  dyz    Ryd( 3d)     0.00038       2.30221
   293    C   13  dx2y2  Ryd( 3d)     0.00050       2.34328
   294    C   13  dz2    Ryd( 3d)     0.00078       1.98622
 
   295    N   14  S      Cor( 1S)     0.99970     -14.03308
   296    N   14  S      Val( 2S)     0.67322      -0.44742
   297    N   14  S      Ryd( 3S)     0.00096       0.80436
   298    N   14  S      Ryd( 4S)     0.00043       1.51696
   299    N   14  S      Ryd( 5S)     0.00000      35.42218
   300    N   14  px     Val( 2p)     0.69404      -0.09638
   301    N   14  px     Ryd( 3p)     0.00138       0.82613
   302    N   14  px     Ryd( 4p)     0.00014       0.83737
   303    N   14  px     Ryd( 5p)     0.00001       4.41739
   304    N   14  py     Val( 2p)     0.81449      -0.12507
   305    N   14  py     Ryd( 3p)     0.00308       0.64841
   306    N   14  py     Ryd( 4p)     0.00014       0.76061
   307    N   14  py     Ryd( 5p)     0.00002       4.14891
   308    N   14  pz     Val( 2p)     0.70708      -0.10307
   309    N   14  pz     Ryd( 3p)     0.00161       0.73654
   310    N   14  pz     Ryd( 4p)     0.00010       0.83230
   311    N   14  pz     Ryd( 5p)     0.00002       4.35489
   312    N   14  dxy    Ryd( 3d)     0.00047       2.71547
   313    N   14  dxz    Ryd( 3d)     0.00049       3.02115
   314    N   14  dyz    Ryd( 3d)     0.00042       2.78600
   315    N   14  dx2y2  Ryd( 3d)     0.00030       2.60480
   316    N   14  dz2    Ryd( 3d)     0.00018       2.51344
 
   317    H   15  S      Val( 1S)     0.40693       0.11971
   318    H   15  S      Ryd( 2S)     0.00038       0.37299
   319    H   15  S      Ryd( 3S)     0.00020       1.14579
   320    H   15  S      Ryd( 4S)     0.00003       1.57383
   321    H   15  px     Ryd( 2p)     0.00012       2.17736
   322    H   15  py     Ryd( 2p)     0.00008       2.44126
   323    H   15  pz     Ryd( 2p)     0.00009       1.89926
 
   324    H   16  S      Val( 1S)     0.41654       0.10421
   325    H   16  S      Ryd( 2S)     0.00053       0.32482
   326    H   16  S      Ryd( 3S)     0.00048       1.32387
   327    H   16  S      Ryd( 4S)     0.00007       1.37958
   328    H   16  px     Ryd( 2p)     0.00009       2.13780
   329    H   16  py     Ryd( 2p)     0.00006       1.88821
   330    H   16  pz     Ryd( 2p)     0.00016       2.51337
 
   331    H   17  S      Val( 1S)     0.41310       0.10613
   332    H   17  S      Ryd( 2S)     0.00082       0.35711
   333    H   17  S      Ryd( 3S)     0.00046       1.12560
   334    H   17  S      Ryd( 4S)     0.00006       1.44122
   335    H   17  px     Ryd( 2p)     0.00010       2.26686
   336    H   17  py     Ryd( 2p)     0.00007       1.83687
   337    H   17  pz     Ryd( 2p)     0.00014       2.44486
 
   338    H   18  S      Val( 1S)     0.41553       0.15248
   339    H   18  S      Ryd( 2S)     0.00067       0.61388
   340    H   18  S      Ryd( 4S)     0.00006       1.68742
   341    H   18  S      Ryd( 3S)     0.00002       1.26693
   342    H   18  px     Ryd( 2p)     0.00006       2.17765
   343    H   18  py     Ryd( 2p)     0.00027       2.72685
   344    H   18  pz     Ryd( 2p)     0.00012       1.77534
 
   345    H   19  S      Val( 1S)     0.40418       0.15953
   346    H   19  S      Ryd( 2S)     0.00015       0.37174
   347    H   19  S      Ryd( 4S)     0.00035       1.51779
   348    H   19  S      Ryd( 3S)     0.00002       1.06129
   349    H   19  px     Ryd( 2p)     0.00020       2.81153
   350    H   19  py     Ryd( 2p)     0.00006       2.11961
   351    H   19  pz     Ryd( 2p)     0.00010       1.74065
 
   352    H   20  S      Val( 1S)     0.39648       0.15371
   353    H   20  S      Ryd( 2S)     0.00083       0.44675
   354    H   20  S      Ryd( 4S)     0.00033       1.51241
   355    H   20  S      Ryd( 3S)     0.00002       0.93370
   356    H   20  px     Ryd( 2p)     0.00012       2.46486
   357    H   20  py     Ryd( 2p)     0.00013       2.49622
   358    H   20  pz     Ryd( 2p)     0.00012       1.77097
 
   359    H   21  S      Val( 1S)     0.31348       0.18850
   360    H   21  S      Ryd( 2S)     0.00111       0.57229
   361    H   21  S      Ryd( 4S)     0.00028       1.66520
   362    H   21  S      Ryd( 3S)     0.00013       1.08296
   363    H   21  px     Ryd( 2p)     0.00022       2.22437
   364    H   21  py     Ryd( 2p)     0.00027       1.93788
   365    H   21  pz     Ryd( 2p)     0.00028       2.27297
 
   366    H   22  S      Val( 1S)     0.30969       0.19348
   367    H   22  S      Ryd( 2S)     0.00054       0.76578
   368    H   22  S      Ryd( 4S)     0.00036       1.31447
   369    H   22  S      Ryd( 3S)     0.00015       1.25374
   370    H   22  px     Ryd( 2p)     0.00018       2.50539
   371    H   22  py     Ryd( 2p)     0.00035       1.95316
   372    H   22  pz     Ryd( 2p)     0.00027       1.99888

 WARNING:  Population inversion found on atom  C    1
           Population inversion found on atom  O    2
           Population inversion found on atom  C    3
           Population inversion found on atom  C    4
           Population inversion found on atom  N    5
           Population inversion found on atom  C    6
           Population inversion found on atom  C    7
           Population inversion found on atom  C    8
           Population inversion found on atom  C    9
           Population inversion found on atom  N   10
           Population inversion found on atom  S   11
           Population inversion found on atom  N   12
           Population inversion found on atom  C   13
           Population inversion found on atom  H   18
           Population inversion found on atom  H   19
           Population inversion found on atom  H   20
           Population inversion found on atom  H   21
           Population inversion found on atom  H   22


 Summary of Natural Population Analysis:                  
                                                          
                                       Natural Population 
                Natural  -----------------------------------------------
    Atom  No    Charge         Core      Valence    Rydberg      Total
 -----------------------------------------------------------------------
      C    1   -0.10002      0.99960     2.09100    0.00941     3.10002
      O    2   -0.26842      0.99985     3.25892    0.00964     4.26842
      C    3    0.14643      0.99935     1.84055    0.01366     2.85357
      C    4    0.08989      0.99947     1.89343    0.01721     2.91011
      N    5   -0.18753      0.99968     2.67724    0.01060     3.68753
      C    6   -0.00639      0.99959     1.99306    0.01373     3.00639
      C    7   -0.09042      0.99957     2.08021    0.01064     3.09042
      C    8   -0.12091      0.99953     2.11202    0.00936     3.12091
      C    9    0.05685      0.99951     1.92469    0.01895     2.94315
      N   10   -0.22070      0.99969     2.70901    0.01200     3.72070
      S   11    0.35184      4.99955     2.61317    0.03544     7.64816
      N   12   -0.33538      0.99968     2.82131    0.01438     3.83538
      C   13    0.17067      0.99954     1.81400    0.01579     2.82933
      N   14   -0.39828      0.99970     2.88883    0.00975     3.89828
      H   15    0.09218      0.00000     0.40693    0.00089     0.40782
      H   16    0.08207      0.00000     0.41654    0.00139     0.41793
      H   17    0.08524      0.00000     0.41310    0.00165     0.41476
      H   18    0.08328      0.00000     0.41553    0.00120     0.41672
      H   19    0.09494      0.00000     0.40418    0.00088     0.40506
      H   20    0.10196      0.00000     0.39648    0.00156     0.39804
      H   21    0.18423      0.00000     0.31348    0.00229     0.31577
      H   22    0.18847      0.00000     0.30969    0.00184     0.31153
 =======================================================================
   * Total *    0.00000     17.99433    35.79341    0.21227    54.00000

                                 Natural Population      
 --------------------------------------------------------
   Core                      17.99433 ( 99.9685% of  18)
   Valence                   35.79341 ( 99.4261% of  36)
   Natural Minimal Basis     53.78773 ( 99.6069% of  54)
   Natural Rydberg Basis      0.21227 (  0.3931% of  54)
 --------------------------------------------------------

    Atom  No          Natural Electron Configuration
 ----------------------------------------------------------------------------
      C    1      [core]2S( 0.54)2p( 1.55)
      O    2      [core]2S( 0.79)2p( 2.47)3p( 0.01)
      C    3      [core]2S( 0.41)2p( 1.43)3p( 0.01)
      C    4      [core]2S( 0.41)2p( 1.48)3p( 0.01)
      N    5      [core]2S( 0.68)2p( 2.00)4p( 0.01)
      C    6      [core]2S( 0.46)2p( 1.54)3p( 0.01)
      C    7      [core]2S( 0.47)2p( 1.61)
      C    8      [core]2S( 0.47)2p( 1.64)3p( 0.01)
      C    9      [core]2S( 0.42)2p( 1.50)4p( 0.01)
      N   10      [core]2S( 0.74)2p( 1.96)
      S   11      [core]3S( 0.83)3p( 1.79)3d( 0.02)4p( 0.01)5S( 0.01)
      N   12      [core]2S( 0.75)2p( 2.07)
      C   13      [core]2S( 0.40)2p( 1.41)3p( 0.01)
      N   14      [core]2S( 0.67)2p( 2.22)3p( 0.01)
      H   15            1S( 0.41)
      H   16            1S( 0.42)
      H   17            1S( 0.41)
      H   18            1S( 0.42)
      H   19            1S( 0.40)
      H   20            1S( 0.40)
      H   21            1S( 0.31)
      H   22            1S( 0.31)


 NBO analysis skipped by request.
 1\1\GINC-NODE309\SP\UB3LYP\6-311++G(d,p)\C8H8N4O1S1(1-,2)\VSC10255\10-
 Dec-2020\0\\# B3LYP/6-311++G(d,p) empiricaldispersion=gd3bj scf=xqc po
 p=npa geom=check\\CID_108211052_JID_4177_Energie_anion\\-1,2\C,0,1.118
 9890404,-0.1290332717,0.1008297456\O,0,0.2187627394,-0.9991996865,-0.5
 680327465\C,0,0.6158633766,-1.563566862,-1.7351257631\C,0,-0.352898124
 1,-2.3372794523,-2.4149199214\N,0,-0.0834161972,-2.9825360795,-3.55378
 18083\C,0,1.1462783043,-2.8809680414,-4.0708669369\C,0,2.1564724275,-2
 .1234696868,-3.4831750664\C,0,1.8913073337,-1.4481259592,-2.2925641009
 \C,0,-1.7262313267,-2.4522536909,-1.8640611679\N,0,-2.2370631338,-3.61
 9830229,-1.5425277841\S,0,-3.7940475047,-3.3574723545,-1.0111176645\N,
 0,-3.8303568463,-1.697387259,-1.2185888774\C,0,-2.648404844,-1.3417848
 193,-1.6776320861\N,0,-2.3317627526,-0.0212121223,-1.9299993041\H,0,0.
 5788544115,0.2427674028,0.9718252718\H,0,1.4070621704,0.7147594549,-0.
 5392882477\H,0,2.0206088467,-0.6619623708,0.4286361327\H,0,1.323065180
 2,-3.4233821184,-4.9966275599\H,0,3.1378137011,-2.0613439235,-3.943647
 2496\H,0,2.6643804668,-0.8630435278,-1.8082235282\H,0,-3.14228787,0.57
 22996172,-2.0554563593\H,0,-1.6246393992,0.11652498,-2.640874978\\Vers
 ion=ES64L-G16RevA.03\State=2-A\HF=-1002.2937165\S2=0.755534\S2-1=0.\S2
 A=0.750023\RMSD=2.957e-11\Dipole=-0.1174194,1.0536532,-0.3580448\Quadr
 upole=-12.6273702,6.4043282,6.223042,-7.4397995,1.909423,-4.3985854\PG
 =C01 [X(C8H8N4O1S1)]\\@


 ...THE PHYSICISTS HAVE MADE THEIR UNIVERSE, AND IF YOU DO NOT LIKE
 IT, YOU MUST MAKE YOUR OWN.
                               -- E. R. HARRISON IN "COSMOLOGY" (1980)
 Job cpu time:       0 days  0 hours 23 minutes 51.3 seconds.
 Elapsed time:       0 days  0 hours  6 minutes  3.0 seconds.
 File lengths (MBytes):  RWF=    184 Int=      0 D2E=      0 Chk=     20 Scr=      8
 Normal termination of Gaussian 16 at Thu Dec 10 09:37:16 2020.
