 Entering Gaussian System, Link 0=g16
 Initial command:
 /apps/brussel/CO7/skylake/software/Gaussian/G16.A.03-intel-2017b/g16/l1.exe "/scratch/brussel/102/vsc10255/3544754[2680].master01.hydra.brussel.vsc/Gau-242713.inp" -scrdir="/scratch/brussel/102/vsc10255/3544754[2680].master01.hydra.brussel.vsc/"
 Entering Link 1 = /apps/brussel/CO7/skylake/software/Gaussian/G16.A.03-intel-2017b/g16/l1.exe.bin PID=    242717.
  
 Copyright (c) 1988,1990,1992,1993,1995,1998,2003,2009,2016,
            Gaussian, Inc.  All Rights Reserved.
  
 This is part of the Gaussian(R) 16 program.  It is based on
 the Gaussian(R) 09 system (copyright 2009, Gaussian, Inc.),
 the Gaussian(R) 03 system (copyright 2003, Gaussian, Inc.),
 the Gaussian(R) 98 system (copyright 1998, Gaussian, Inc.),
 the Gaussian(R) 94 system (copyright 1995, Gaussian, Inc.),
 the Gaussian 92(TM) system (copyright 1992, Gaussian, Inc.),
 the Gaussian 90(TM) system (copyright 1990, Gaussian, Inc.),
 the Gaussian 88(TM) system (copyright 1988, Gaussian, Inc.),
 the Gaussian 86(TM) system (copyright 1986, Carnegie Mellon
 University), and the Gaussian 82(TM) system (copyright 1983,
 Carnegie Mellon University). Gaussian is a federally registered
 trademark of Gaussian, Inc.
  
 This software contains proprietary and confidential information,
 including trade secrets, belonging to Gaussian, Inc.
  
 This software is provided under written license and may be
 used, copied, transmitted, or stored only in accord with that
 written license.
  
 The following legend is applicable only to US Government
 contracts under FAR:
  
                    RESTRICTED RIGHTS LEGEND
  
 Use, reproduction and disclosure by the US Government is
 subject to restrictions as set forth in subparagraphs (a)
 and (c) of the Commercial Computer Software - Restricted
 Rights clause in FAR 52.227-19.
  
 Gaussian, Inc.
 340 Quinnipiac St., Bldg. 40, Wallingford CT 06492
  
  
 ---------------------------------------------------------------
 Warning -- This program may not be used in any manner that
 competes with the business of Gaussian, Inc. or will provide
 assistance to any competitor of Gaussian, Inc.  The licensee
 of this program is prohibited from giving any competitor of
 Gaussian, Inc. access to this program.  By using this program,
 the user acknowledges that Gaussian, Inc. is engaged in the
 business of creating and licensing software in the field of
 computational chemistry and represents and warrants to the
 licensee that it is not a competitor of Gaussian, Inc. and that
 it will not use this program in any manner prohibited above.
 ---------------------------------------------------------------
  

 Cite this work as:
 Gaussian 16, Revision A.03,
 M. J. Frisch, G. W. Trucks, H. B. Schlegel, G. E. Scuseria, 
 M. A. Robb, J. R. Cheeseman, G. Scalmani, V. Barone, 
 G. A. Petersson, H. Nakatsuji, X. Li, M. Caricato, A. V. Marenich, 
 J. Bloino, B. G. Janesko, R. Gomperts, B. Mennucci, H. P. Hratchian, 
 J. V. Ortiz, A. F. Izmaylov, J. L. Sonnenberg, D. Williams-Young, 
 F. Ding, F. Lipparini, F. Egidi, J. Goings, B. Peng, A. Petrone, 
 T. Henderson, D. Ranasinghe, V. G. Zakrzewski, J. Gao, N. Rega, 
 G. Zheng, W. Liang, M. Hada, M. Ehara, K. Toyota, R. Fukuda, 
 J. Hasegawa, M. Ishida, T. Nakajima, Y. Honda, O. Kitao, H. Nakai, 
 T. Vreven, K. Throssell, J. A. Montgomery, Jr., J. E. Peralta, 
 F. Ogliaro, M. J. Bearpark, J. J. Heyd, E. N. Brothers, K. N. Kudin, 
 V. N. Staroverov, T. A. Keith, R. Kobayashi, J. Normand, 
 K. Raghavachari, A. P. Rendell, J. C. Burant, S. S. Iyengar, 
 J. Tomasi, M. Cossi, J. M. Millam, M. Klene, C. Adamo, R. Cammi, 
 J. W. Ochterski, R. L. Martin, K. Morokuma, O. Farkas, 
 J. B. Foresman, and D. J. Fox, Gaussian, Inc., Wallingford CT, 2016.
 
 ******************************************
 Gaussian 16:  ES64L-G16RevA.03 25-Dec-2016
                 9-Dec-2020 
 ******************************************
 %chk=JID_2680.chk
 %mem=8GB
 %nprocshared=4
 Will use up to    4 processors via shared memory.
 -----------------------------------------------------------
 # opt freq B3LYP/6-31G(d) empiricaldispersion=gd3bj scf=xqc
 -----------------------------------------------------------
 1/18=20,19=15,26=3,38=1/1,3;
 2/9=110,12=2,17=6,18=5,40=1/2;
 3/5=1,6=6,7=1,11=2,25=1,30=1,71=1,74=-5,124=41/1,2,3;
 4//1;
 5/5=2,8=3,13=1,38=5/2,8;
 6/7=2,8=2,9=2,10=2,28=1/1;
 7//1,2,3,16;
 1/18=20,19=15,26=3/3(2);
 2/9=110/2;
 99//99;
 2/9=110/2;
 3/5=1,6=6,7=1,11=2,25=1,30=1,71=1,74=-5,124=41/1,2,3;
 4/5=5,16=3,69=1/1;
 5/5=2,8=3,13=1,38=5/2,8;
 7//1,2,3,16;
 1/18=20,19=15,26=3/3(-5);
 2/9=110/2;
 6/7=2,8=2,9=2,10=2,19=2,28=1/1;
 99/9=1/99;
 ------------------------------
 CID_12835792_JID_2680_neutraal
 ------------------------------
 Symbolic Z-matrix:
 Charge =  0 Multiplicity = 1
 C                     1.07635   0.04612   0.04521 
 C                     0.41724  -0.83519   1.0739 
 O                    -0.58263  -0.45851   1.68593 
 C                     0.99433  -2.21684   1.29049 
 C                     0.5835   -3.21234   0.20748 
 C                     1.06056  -2.82853  -1.16519 
 C                     2.52565  -2.86373  -1.56132 
 C                     1.53071  -3.80793  -2.22629 
 C                     1.52838  -5.28648  -1.94066 
 C                     1.13839  -3.48148  -3.65219 
 C                     3.58261  -3.32225  -0.62671 
 O                     4.59367  -2.65455  -0.46244 
 H                     1.12443   1.06691   0.43629 
 H                     0.49487   0.047    -0.87813 
 H                     2.10063  -0.27877  -0.15006 
 H                     2.0819   -2.12772   1.37603 
 H                     0.63878  -2.57425   2.26484 
 H                     0.9525   -4.19997   0.4991 
 H                    -0.51076  -3.28556   0.17872 
 H                     0.44392  -2.02266  -1.55499 
 H                     2.86436  -2.01735  -2.15713 
 H                     1.9262   -5.54615  -0.95763 
 H                     0.50514  -5.67261  -1.99561 
 H                     2.13285  -5.81545  -2.68479 
 H                     0.0815   -3.71534  -3.8155 
 H                     1.28473  -2.42001  -3.8841 
 H                     1.73921  -4.06004  -4.36065 
 H                     3.41298  -4.25319  -0.06408 
 

 GradGradGradGradGradGradGradGradGradGradGradGradGradGradGradGradGradGrad
 Berny optimization.
 Initialization pass.
                           ----------------------------
                           !    Initial Parameters    !
                           ! (Angstroms and Degrees)  !
 --------------------------                            --------------------------
 ! Name  Definition              Value          Derivative Info.                !
 --------------------------------------------------------------------------------
 ! R1    R(1,2)                  1.5064         estimate D2E/DX2                !
 ! R2    R(1,13)                 1.0942         estimate D2E/DX2                !
 ! R3    R(1,14)                 1.0912         estimate D2E/DX2                !
 ! R4    R(1,15)                 1.0922         estimate D2E/DX2                !
 ! R5    R(2,3)                  1.2313         estimate D2E/DX2                !
 ! R6    R(2,4)                  1.5129         estimate D2E/DX2                !
 ! R7    R(4,5)                  1.5273         estimate D2E/DX2                !
 ! R8    R(4,16)                 1.0946         estimate D2E/DX2                !
 ! R9    R(4,17)                 1.097          estimate D2E/DX2                !
 ! R10   R(5,6)                  1.503          estimate D2E/DX2                !
 ! R11   R(5,18)                 1.0939         estimate D2E/DX2                !
 ! R12   R(5,19)                 1.0971         estimate D2E/DX2                !
 ! R13   R(6,7)                  1.5181         estimate D2E/DX2                !
 ! R14   R(6,8)                  1.5186         estimate D2E/DX2                !
 ! R15   R(6,20)                 1.087          estimate D2E/DX2                !
 ! R16   R(7,8)                  1.5243         estimate D2E/DX2                !
 ! R17   R(7,11)                 1.4835         estimate D2E/DX2                !
 ! R18   R(7,21)                 1.0891         estimate D2E/DX2                !
 ! R19   R(8,9)                  1.5059         estimate D2E/DX2                !
 ! R20   R(8,10)                 1.5145         estimate D2E/DX2                !
 ! R21   R(9,22)                 1.0918         estimate D2E/DX2                !
 ! R22   R(9,23)                 1.0951         estimate D2E/DX2                !
 ! R23   R(9,24)                 1.095          estimate D2E/DX2                !
 ! R24   R(10,25)                1.0947         estimate D2E/DX2                !
 ! R25   R(10,26)                1.0963         estimate D2E/DX2                !
 ! R26   R(10,27)                1.0944         estimate D2E/DX2                !
 ! R27   R(11,12)                1.2227         estimate D2E/DX2                !
 ! R28   R(11,28)                1.1009         estimate D2E/DX2                !
 ! A1    A(2,1,13)             108.72           estimate D2E/DX2                !
 ! A2    A(2,1,14)             110.1907         estimate D2E/DX2                !
 ! A3    A(2,1,15)             111.0016         estimate D2E/DX2                !
 ! A4    A(13,1,14)            108.9716         estimate D2E/DX2                !
 ! A5    A(13,1,15)            107.4701         estimate D2E/DX2                !
 ! A6    A(14,1,15)            110.4088         estimate D2E/DX2                !
 ! A7    A(1,2,3)              121.0461         estimate D2E/DX2                !
 ! A8    A(1,2,4)              117.7193         estimate D2E/DX2                !
 ! A9    A(3,2,4)              121.1948         estimate D2E/DX2                !
 ! A10   A(2,4,5)              113.0246         estimate D2E/DX2                !
 ! A11   A(2,4,16)             108.4114         estimate D2E/DX2                !
 ! A12   A(2,4,17)             107.5207         estimate D2E/DX2                !
 ! A13   A(5,4,16)             112.0709         estimate D2E/DX2                !
 ! A14   A(5,4,17)             109.2843         estimate D2E/DX2                !
 ! A15   A(16,4,17)            106.2091         estimate D2E/DX2                !
 ! A16   A(4,5,6)              113.3141         estimate D2E/DX2                !
 ! A17   A(4,5,18)             107.9811         estimate D2E/DX2                !
 ! A18   A(4,5,19)             109.2921         estimate D2E/DX2                !
 ! A19   A(6,5,18)             111.5275         estimate D2E/DX2                !
 ! A20   A(6,5,19)             108.0401         estimate D2E/DX2                !
 ! A21   A(18,5,19)            106.4506         estimate D2E/DX2                !
 ! A22   A(5,6,7)              122.595          estimate D2E/DX2                !
 ! A23   A(5,6,8)              124.8688         estimate D2E/DX2                !
 ! A24   A(5,6,20)             109.679          estimate D2E/DX2                !
 ! A25   A(7,6,20)             118.1046         estimate D2E/DX2                !
 ! A26   A(8,6,20)             113.7774         estimate D2E/DX2                !
 ! A27   A(6,7,11)             122.0295         estimate D2E/DX2                !
 ! A28   A(6,7,21)             115.1431         estimate D2E/DX2                !
 ! A29   A(8,7,11)             123.2574         estimate D2E/DX2                !
 ! A30   A(8,7,21)             116.4697         estimate D2E/DX2                !
 ! A31   A(11,7,21)            111.3012         estimate D2E/DX2                !
 ! A32   A(6,8,9)              120.0139         estimate D2E/DX2                !
 ! A33   A(6,8,10)             116.0173         estimate D2E/DX2                !
 ! A34   A(7,8,9)              121.7651         estimate D2E/DX2                !
 ! A35   A(7,8,10)             116.5054         estimate D2E/DX2                !
 ! A36   A(9,8,10)             112.9432         estimate D2E/DX2                !
 ! A37   A(8,9,22)             113.8117         estimate D2E/DX2                !
 ! A38   A(8,9,23)             109.7636         estimate D2E/DX2                !
 ! A39   A(8,9,24)             110.1556         estimate D2E/DX2                !
 ! A40   A(22,9,23)            107.5652         estimate D2E/DX2                !
 ! A41   A(22,9,24)            107.2082         estimate D2E/DX2                !
 ! A42   A(23,9,24)            108.1436         estimate D2E/DX2                !
 ! A43   A(8,10,25)            110.1515         estimate D2E/DX2                !
 ! A44   A(8,10,26)            111.9182         estimate D2E/DX2                !
 ! A45   A(8,10,27)            110.6911         estimate D2E/DX2                !
 ! A46   A(25,10,26)           107.7072         estimate D2E/DX2                !
 ! A47   A(25,10,27)           108.6952         estimate D2E/DX2                !
 ! A48   A(26,10,27)           107.5562         estimate D2E/DX2                !
 ! A49   A(7,11,12)            120.3304         estimate D2E/DX2                !
 ! A50   A(7,11,28)            118.2644         estimate D2E/DX2                !
 ! A51   A(12,11,28)           121.3673         estimate D2E/DX2                !
 ! D1    D(13,1,2,3)            43.0586         estimate D2E/DX2                !
 ! D2    D(13,1,2,4)          -139.2094         estimate D2E/DX2                !
 ! D3    D(14,1,2,3)           -76.3051         estimate D2E/DX2                !
 ! D4    D(14,1,2,4)           101.4269         estimate D2E/DX2                !
 ! D5    D(15,1,2,3)           161.0684         estimate D2E/DX2                !
 ! D6    D(15,1,2,4)           -21.1996         estimate D2E/DX2                !
 ! D7    D(1,2,4,5)            -78.1622         estimate D2E/DX2                !
 ! D8    D(1,2,4,16)            46.7116         estimate D2E/DX2                !
 ! D9    D(1,2,4,17)           161.143          estimate D2E/DX2                !
 ! D10   D(3,2,4,5)             99.5661         estimate D2E/DX2                !
 ! D11   D(3,2,4,16)          -135.56           estimate D2E/DX2                !
 ! D12   D(3,2,4,17)           -21.1287         estimate D2E/DX2                !
 ! D13   D(2,4,5,6)             61.9324         estimate D2E/DX2                !
 ! D14   D(2,4,5,18)          -174.0145         estimate D2E/DX2                !
 ! D15   D(2,4,5,19)           -58.6071         estimate D2E/DX2                !
 ! D16   D(16,4,5,6)           -60.9304         estimate D2E/DX2                !
 ! D17   D(16,4,5,18)           63.1228         estimate D2E/DX2                !
 ! D18   D(16,4,5,19)          178.5301         estimate D2E/DX2                !
 ! D19   D(17,4,5,6)          -178.3814         estimate D2E/DX2                !
 ! D20   D(17,4,5,18)          -54.3282         estimate D2E/DX2                !
 ! D21   D(17,4,5,19)           61.0791         estimate D2E/DX2                !
 ! D22   D(4,5,6,7)             69.366          estimate D2E/DX2                !
 ! D23   D(4,5,6,8)            143.5769         estimate D2E/DX2                !
 ! D24   D(4,5,6,20)           -75.9707         estimate D2E/DX2                !
 ! D25   D(18,5,6,7)           -52.7312         estimate D2E/DX2                !
 ! D26   D(18,5,6,8)            21.4797         estimate D2E/DX2                !
 ! D27   D(18,5,6,20)          161.9321         estimate D2E/DX2                !
 ! D28   D(19,5,6,7)          -169.3876         estimate D2E/DX2                !
 ! D29   D(19,5,6,8)           -95.1767         estimate D2E/DX2                !
 ! D30   D(19,5,6,20)           45.2758         estimate D2E/DX2                !
 ! D31   D(5,6,7,11)             1.9545         estimate D2E/DX2                !
 ! D32   D(5,6,7,21)          -138.1279         estimate D2E/DX2                !
 ! D33   D(20,6,7,11)          144.5728         estimate D2E/DX2                !
 ! D34   D(20,6,7,21)            4.4904         estimate D2E/DX2                !
 ! D35   D(5,6,8,9)              0.5826         estimate D2E/DX2                !
 ! D36   D(5,6,8,10)           142.1111         estimate D2E/DX2                !
 ! D37   D(20,6,8,9)          -138.4872         estimate D2E/DX2                !
 ! D38   D(20,6,8,10)            3.0414         estimate D2E/DX2                !
 ! D39   D(11,7,8,9)             1.9514         estimate D2E/DX2                !
 ! D40   D(11,7,8,10)         -143.2468         estimate D2E/DX2                !
 ! D41   D(21,7,8,9)           146.2274         estimate D2E/DX2                !
 ! D42   D(21,7,8,10)            1.0291         estimate D2E/DX2                !
 ! D43   D(6,7,11,12)         -131.2507         estimate D2E/DX2                !
 ! D44   D(6,7,11,28)           46.5418         estimate D2E/DX2                !
 ! D45   D(8,7,11,12)          156.0539         estimate D2E/DX2                !
 ! D46   D(8,7,11,28)          -26.1536         estimate D2E/DX2                !
 ! D47   D(21,7,11,12)          10.1787         estimate D2E/DX2                !
 ! D48   D(21,7,11,28)        -172.0287         estimate D2E/DX2                !
 ! D49   D(6,8,9,22)           -44.5166         estimate D2E/DX2                !
 ! D50   D(6,8,9,23)            76.0859         estimate D2E/DX2                !
 ! D51   D(6,8,9,24)          -164.9437         estimate D2E/DX2                !
 ! D52   D(7,8,9,22)            26.5489         estimate D2E/DX2                !
 ! D53   D(7,8,9,23)           147.1513         estimate D2E/DX2                !
 ! D54   D(7,8,9,24)           -93.8783         estimate D2E/DX2                !
 ! D55   D(10,8,9,22)          172.8639         estimate D2E/DX2                !
 ! D56   D(10,8,9,23)          -66.5336         estimate D2E/DX2                !
 ! D57   D(10,8,9,24)           52.4368         estimate D2E/DX2                !
 ! D58   D(6,8,10,25)          -75.7268         estimate D2E/DX2                !
 ! D59   D(6,8,10,26)           44.0673         estimate D2E/DX2                !
 ! D60   D(6,8,10,27)          164.0364         estimate D2E/DX2                !
 ! D61   D(7,8,10,25)         -143.3267         estimate D2E/DX2                !
 ! D62   D(7,8,10,26)          -23.5326         estimate D2E/DX2                !
 ! D63   D(7,8,10,27)           96.4365         estimate D2E/DX2                !
 ! D64   D(9,8,10,25)           68.4719         estimate D2E/DX2                !
 ! D65   D(9,8,10,26)         -171.734          estimate D2E/DX2                !
 ! D66   D(9,8,10,27)          -51.7649         estimate D2E/DX2                !
 --------------------------------------------------------------------------------
 Trust Radius=3.00D-01 FncErr=1.00D-07 GrdErr=1.00D-06 EigMax=2.50D+02 EigMin=1.00D-04
 Number of steps in this run=    155 maximum allowed number of steps=    168.
 GradGradGradGradGradGradGradGradGradGradGradGradGradGradGradGradGradGrad

                          Input orientation:                          
 ---------------------------------------------------------------------
 Center     Atomic      Atomic             Coordinates (Angstroms)
 Number     Number       Type             X           Y           Z
 ---------------------------------------------------------------------
      1          6           0        1.076350    0.046120    0.045210
      2          6           0        0.417240   -0.835190    1.073900
      3          8           0       -0.582630   -0.458510    1.685930
      4          6           0        0.994330   -2.216840    1.290490
      5          6           0        0.583500   -3.212340    0.207480
      6          6           0        1.060560   -2.828530   -1.165190
      7          6           0        2.525650   -2.863730   -1.561320
      8          6           0        1.530710   -3.807930   -2.226290
      9          6           0        1.528380   -5.286480   -1.940660
     10          6           0        1.138390   -3.481480   -3.652190
     11          6           0        3.582610   -3.322250   -0.626710
     12          8           0        4.593670   -2.654550   -0.462440
     13          1           0        1.124430    1.066910    0.436290
     14          1           0        0.494870    0.047000   -0.878130
     15          1           0        2.100630   -0.278770   -0.150060
     16          1           0        2.081900   -2.127720    1.376030
     17          1           0        0.638780   -2.574250    2.264840
     18          1           0        0.952500   -4.199970    0.499100
     19          1           0       -0.510760   -3.285560    0.178720
     20          1           0        0.443920   -2.022660   -1.554990
     21          1           0        2.864360   -2.017350   -2.157130
     22          1           0        1.926200   -5.546150   -0.957630
     23          1           0        0.505140   -5.672610   -1.995610
     24          1           0        2.132850   -5.815450   -2.684790
     25          1           0        0.081500   -3.715340   -3.815500
     26          1           0        1.284730   -2.420010   -3.884100
     27          1           0        1.739210   -4.060040   -4.360650
     28          1           0        3.412980   -4.253190   -0.064080
 ---------------------------------------------------------------------
                    Distance matrix (angstroms):
                    1          2          3          4          5
     1  C    0.000000
     2  C    1.506432   0.000000
     3  O    2.387222   1.231344   0.000000
     4  C    2.584267   1.512911   2.394765   0.000000
     5  C    3.299514   2.535580   3.336054   1.527322   0.000000
     6  C    3.119123   3.066071   4.055361   2.531584   1.503037
     7  C    3.626105   3.937607   5.098149   3.300943   2.649930
     8  C    4.496649   4.579110   5.566892   3.897052   2.678651
     9  C    5.708295   5.489644   6.396703   4.488678   3.131990
    10  C    5.110634   5.464324   6.371482   5.103935   3.908630
    11  C    4.251909   4.370024   5.558645   3.405405   3.114902
    12  O    4.463504   4.807596   6.019316   4.027357   4.103826
    13  H    1.094197   2.127122   2.608172   3.395526   4.319368
    14  H    1.091181   2.143527   2.826827   3.174483   3.436525
    15  H    1.092169   2.154410   3.256232   2.656163   3.321950
    16  H    2.740035   2.129086   3.159434   1.094563   2.187947
    17  H    3.461873   2.119374   2.510644   1.097049   2.154749
    18  H    4.272076   3.455234   4.214702   2.135615   1.093900
    19  H    3.692809   2.768907   3.204537   2.154876   1.097084
    20  H    2.690810   2.884763   3.742183   2.904723   2.130991
    21  H    3.507875   4.222020   5.392665   3.927199   3.495955
    22  H    5.744686   5.347637   6.258332   4.123922   2.933768
    23  H    6.098779   5.729769   6.474861   4.793757   3.303434
    24  H    6.551877   6.471017   7.427909   5.481703   4.188304
    25  H    5.481185   5.684560   6.427577   5.399064   4.085264
    26  H    4.643780   5.276927   6.193525   5.186713   4.226173
    27  H    6.059005   6.456129   7.411011   5.990627   4.787700
    28  H    4.894471   4.685315   5.781611   3.439687   3.027056
                    6          7          8          9         10
     6  C    0.000000
     7  C    1.518106   0.000000
     8  C    1.518617   1.524337   0.000000
     9  C    2.619490   2.647294   1.505888   0.000000
    10  C    2.572464   2.584152   1.514488   2.517827   0.000000
    11  C    2.625730   1.483543   2.646665   3.131218   3.892698
    12  O    3.606521   2.351170   3.717953   4.302115   4.774650
    13  H    4.212276   4.626423   5.569422   6.795486   6.115858
    14  H    2.944670   3.614300   4.213192   5.535623   4.534280
    15  H    2.934878   2.975620   4.134067   5.348914   4.842331
    16  H    2.827025   3.060498   4.012932   4.613522   5.292058
    17  H    3.465207   4.275930   4.742125   5.082697   6.006989
    18  H    2.159256   2.916448   2.813498   2.732137   4.217107
    19  H    2.117550   3.524977   3.197584   3.557182   4.175398
    20  H    1.087021   2.245226   2.195210   3.460826   2.647393
    21  H    2.212612   1.089070   2.233737   3.538208   2.712536
    22  H    2.859698   2.814100   2.187994   1.091805   3.484847
    23  H    3.014445   3.487245   2.140570   1.095051   2.818921
    24  H    3.518619   3.182629   2.145444   1.094953   2.715185
    25  H    2.961272   3.432264   2.152759   2.842001   1.094704
    26  H    2.758553   2.670595   2.176043   3.471739   1.096319
    27  H    3.491153   3.144184   2.159288   2.721205   1.094364
    28  H    2.962428   2.227034   2.901094   2.853236   4.317850
                   11         12         13         14         15
    11  C    0.000000
    12  O    1.222722   0.000000
    13  H    5.141726   5.166489   0.000000
    14  H    4.577029   4.926594   1.778837   0.000000
    15  H    3.418513   3.457913   1.762846   1.792952   0.000000
    16  H    2.773085   3.156978   3.464898   3.511312   2.397482
    17  H    4.193650   4.804754   4.103352   4.095110   3.638403
    18  H    2.992544   4.070749   5.270060   4.488089   4.137079
    19  H    4.172019   5.183094   4.656628   3.637881   3.996028
    20  H    3.521649   4.337439   3.738146   2.178125   2.785618
    21  H    2.135611   2.503699   4.389287   3.392914   2.763019
    22  H    2.792657   3.965093   6.805763   5.773937   5.331781
    23  H    4.107177   5.308048   7.191578   5.827762   5.919895
    24  H    3.543098   4.581022   7.623971   6.349435   6.089394
    25  H    4.751913   5.720836   6.483466   4.791056   5.415012
    26  H    4.087160   4.765695   5.554285   3.968107   4.381057
    27  H    4.229038   5.031837   7.047993   5.526672   5.670776
    28  H    1.100898   2.026911   5.813028   5.260197   4.186367
                   16         17         18         19         20
    16  H    0.000000
    17  H    1.752703   0.000000
    18  H    2.517692   2.420583   0.000000
    19  H    3.081563   2.485820   1.754970   0.000000
    20  H    3.359300   3.864366   3.036218   2.347782   0.000000
    21  H    3.620448   4.981683   3.933776   4.296043   2.494219
    22  H    4.141965   4.568802   2.209605   3.512881   3.868976
    23  H    5.140075   5.269642   2.931276   3.384933   3.676959
    24  H    5.485636   6.102168   3.760340   4.646365   4.302812
    25  H    5.785682   6.211536   4.428237   4.060699   2.847177
    26  H    5.328216   6.184699   4.742476   4.525425   2.507908
    27  H    6.063068   6.878636   4.925004   5.125238   3.701408
    28  H    2.891939   3.992354   2.524671   4.048579   4.001674
                   21         22         23         24         25
    21  H    0.000000
    22  H    3.843355   0.000000
    23  H    4.353497   1.764315   0.000000
    24  H    3.903728   1.760201   1.773362   0.000000
    25  H    3.657550   3.862927   2.705989   3.145950   0.000000
    26  H    2.374824   4.329949   3.841037   3.699549   1.769279
    27  H    3.208433   3.718068   3.117166   2.458643   1.778766
    28  H    3.111402   2.163491   3.768434   3.308702   5.045909
                   26         27         28
    26  H    0.000000
    27  H    1.767300   0.000000
    28  H    4.741577   4.615119   0.000000
 Stoichiometry    C10H16O2
 Framework group  C1[X(C10H16O2)]
 Deg. of freedom    78
 Full point group                 C1      NOp   1
 Largest Abelian subgroup         C1      NOp   1
 Largest concise Abelian subgroup C1      NOp   1
                         Standard orientation:                         
 ---------------------------------------------------------------------
 Center     Atomic      Atomic             Coordinates (Angstroms)
 Number     Number       Type             X           Y           Z
 ---------------------------------------------------------------------
      1          6           0        2.347875    0.206692    1.444979
      2          6           0        2.688839   -0.185463    0.031015
      3          8           0        3.693938   -0.851619   -0.218428
      4          6           0        1.727305    0.222112   -1.063625
      5          6           0        0.491926   -0.672937   -1.137365
      6          6           0       -0.342333   -0.639504    0.112440
      7          6           0       -1.140813    0.582176    0.530264
      8          6           0       -1.859118   -0.706184    0.145857
      9          6           0       -2.636236   -0.827726   -1.138283
     10          6           0       -2.464047   -1.507011    1.280058
     11          6           0       -1.183025    1.814454   -0.294727
     12          8           0       -0.987125    2.907358    0.217361
     13          1           0        3.262431    0.533492    1.949020
     14          1           0        1.932113   -0.646923    1.982713
     15          1           0        1.647507    1.044588    1.460730
     16          1           0        1.464503    1.274721   -0.918654
     17          1           0        2.269662    0.170223   -2.015818
     18          1           0       -0.088582   -0.375587   -2.015550
     19          1           0        0.805530   -1.710160   -1.308870
     20          1           0        0.139418   -1.226877    0.889951
     21          1           0       -1.103079    0.818470    1.592721
     22          1           0       -2.286210   -0.162363   -1.929997
     23          1           0       -2.570045   -1.853636   -1.515461
     24          1           0       -3.692070   -0.596090   -0.963691
     25          1           0       -2.358929   -2.578693    1.083019
     26          1           0       -1.974493   -1.294451    2.237696
     27          1           0       -3.527219   -1.273913    1.393914
     28          1           0       -1.357281    1.711626   -1.376872
 ---------------------------------------------------------------------
 Rotational constants (GHZ):           1.2478806           0.5805853           0.5044000
 Standard basis: 6-31G(d) (6D, 7F)
 There are   212 symmetry adapted cartesian basis functions of A   symmetry.
 There are   212 symmetry adapted basis functions of A   symmetry.
   212 basis functions,   400 primitive gaussians,   212 cartesian basis functions
    46 alpha electrons       46 beta electrons
       nuclear repulsion energy       724.7009994606 Hartrees.
 NAtoms=   28 NActive=   28 NUniq=   28 SFac= 1.00D+00 NAtFMM=   60 NAOKFM=F Big=F
 Integral buffers will be    131072 words long.
 Raffenetti 2 integral format.
 Two-electron integral symmetry is turned on.
 Nuclear repulsion after empirical dispersion term =      724.6515762906 Hartrees.
 One-electron integrals computed using PRISM.
 NBasis=   212 RedAO= T EigKep=  2.51D-03  NBF=   212
 NBsUse=   212 1.00D-06 EigRej= -1.00D+00 NBFU=   212
 ExpMin= 1.61D-01 ExpMax= 5.48D+03 ExpMxC= 8.25D+02 IAcc=3 IRadAn=         5 AccDes= 0.00D+00
 Harris functional with IExCor=  402 and IRadAn=       5 diagonalized for initial guess.
 HarFok:  IExCor=  402 AccDes= 0.00D+00 IRadAn=         5 IDoV= 1 UseB2=F ITyADJ=14
 ICtDFT=  3500011 ScaDFX=  1.000000  1.000000  1.000000  1.000000
 FoFCou: FMM=F IPFlag=           0 FMFlag=      100000 FMFlg1=           0
         NFxFlg=           0 DoJE=T BraDBF=F KetDBF=T FulRan=T
         wScrn=  0.000000 ICntrl=       500 IOpCl=  0 I1Cent=   200000004 NGrid=           0
         NMat0=    1 NMatS0=      1 NMatT0=    0 NMatD0=    1 NMtDS0=    0 NMtDT0=    0
 Petite list used in FoFCou.
 Keep R1 ints in memory in canonical form, NReq=259727650.
 Requested convergence on RMS density matrix=1.00D-08 within  32 cycles.
 Requested convergence on MAX density matrix=1.00D-06.
 Requested convergence on             energy=1.00D-06.
 No special actions if energy rises.
 Integral accuracy reduced to 1.0D-05 until final iterations.
 Initial convergence to 1.0D-05 achieved.  Increase integral accuracy.
 SCF Done:  E(RB3LYP) =  -541.151340258     A.U. after   13 cycles
            NFock= 13  Conv=0.97D-08     -V/T= 2.0093
 QCSCF skips out because SCF is already converged.

 **********************************************************************

            Population analysis using the SCF density.

 **********************************************************************

 Orbital symmetries:
       Occupied  (A) (A) (A) (A) (A) (A) (A) (A) (A) (A) (A) (A)
                 (A) (A) (A) (A) (A) (A) (A) (A) (A) (A) (A) (A)
                 (A) (A) (A) (A) (A) (A) (A) (A) (A) (A) (A) (A)
                 (A) (A) (A) (A) (A) (A) (A) (A) (A) (A)
       Virtual   (A) (A) (A) (A) (A) (A) (A) (A) (A) (A) (A) (A)
                 (A) (A) (A) (A) (A) (A) (A) (A) (A) (A) (A) (A)
                 (A) (A) (A) (A) (A) (A) (A) (A) (A) (A) (A) (A)
                 (A) (A) (A) (A) (A) (A) (A) (A) (A) (A) (A) (A)
                 (A) (A) (A) (A) (A) (A) (A) (A) (A) (A) (A) (A)
                 (A) (A) (A) (A) (A) (A) (A) (A) (A) (A) (A) (A)
                 (A) (A) (A) (A) (A) (A) (A) (A) (A) (A) (A) (A)
                 (A) (A) (A) (A) (A) (A) (A) (A) (A) (A) (A) (A)
                 (A) (A) (A) (A) (A) (A) (A) (A) (A) (A) (A) (A)
                 (A) (A) (A) (A) (A) (A) (A) (A) (A) (A) (A) (A)
                 (A) (A) (A) (A) (A) (A) (A) (A) (A) (A) (A) (A)
                 (A) (A) (A) (A) (A) (A) (A) (A) (A) (A) (A) (A)
                 (A) (A) (A) (A) (A) (A) (A) (A) (A) (A) (A) (A)
                 (A) (A) (A) (A) (A) (A) (A) (A) (A) (A)
 The electronic state is 1-A.
 Alpha  occ. eigenvalues --  -19.14749 -19.13427 -10.28073 -10.27463 -10.22196
 Alpha  occ. eigenvalues --  -10.21248 -10.20821 -10.20685 -10.19469 -10.19465
 Alpha  occ. eigenvalues --  -10.19234 -10.18820  -1.04044  -1.02721  -0.89653
 Alpha  occ. eigenvalues --   -0.80415  -0.75100  -0.73928  -0.70953  -0.68506
 Alpha  occ. eigenvalues --   -0.64361  -0.56764  -0.56163  -0.52747  -0.50122
 Alpha  occ. eigenvalues --   -0.48883  -0.46583  -0.46225  -0.44878  -0.44074
 Alpha  occ. eigenvalues --   -0.42970  -0.42843  -0.41627  -0.40456  -0.40347
 Alpha  occ. eigenvalues --   -0.39841  -0.38984  -0.38339  -0.37241  -0.36611
 Alpha  occ. eigenvalues --   -0.34352  -0.34213  -0.29478  -0.28976  -0.25103
 Alpha  occ. eigenvalues --   -0.24184
 Alpha virt. eigenvalues --   -0.03425  -0.01949   0.06332   0.07748   0.09587
 Alpha virt. eigenvalues --    0.10801   0.11091   0.12231   0.13399   0.14074
 Alpha virt. eigenvalues --    0.14409   0.16324   0.16622   0.17187   0.17703
 Alpha virt. eigenvalues --    0.18128   0.19469   0.19895   0.20884   0.21749
 Alpha virt. eigenvalues --    0.22262   0.22958   0.26445   0.27037   0.29607
 Alpha virt. eigenvalues --    0.30214   0.30805   0.31557   0.33578   0.37201
 Alpha virt. eigenvalues --    0.47643   0.48875   0.49822   0.50480   0.51109
 Alpha virt. eigenvalues --    0.52953   0.54067   0.54950   0.56839   0.59007
 Alpha virt. eigenvalues --    0.60086   0.61333   0.63573   0.65466   0.65782
 Alpha virt. eigenvalues --    0.67368   0.68921   0.71444   0.72129   0.72789
 Alpha virt. eigenvalues --    0.73430   0.74214   0.75459   0.77027   0.78764
 Alpha virt. eigenvalues --    0.80525   0.80805   0.82889   0.84395   0.85296
 Alpha virt. eigenvalues --    0.85598   0.85987   0.87278   0.88373   0.89461
 Alpha virt. eigenvalues --    0.91142   0.91298   0.91913   0.92720   0.93184
 Alpha virt. eigenvalues --    0.94825   0.95970   0.96631   0.97991   0.99679
 Alpha virt. eigenvalues --    1.01141   1.02339   1.02914   1.04225   1.05961
 Alpha virt. eigenvalues --    1.07472   1.09769   1.11199   1.15447   1.18128
 Alpha virt. eigenvalues --    1.24765   1.28496   1.34423   1.41428   1.41857
 Alpha virt. eigenvalues --    1.44143   1.46796   1.50281   1.52523   1.54058
 Alpha virt. eigenvalues --    1.54465   1.58563   1.60998   1.63198   1.67072
 Alpha virt. eigenvalues --    1.71453   1.71655   1.73996   1.77631   1.79476
 Alpha virt. eigenvalues --    1.80451   1.80923   1.82501   1.84415   1.86260
 Alpha virt. eigenvalues --    1.89505   1.92201   1.92668   1.94321   1.96225
 Alpha virt. eigenvalues --    1.97792   2.00111   2.02675   2.05939   2.06356
 Alpha virt. eigenvalues --    2.09806   2.10629   2.12691   2.14989   2.18041
 Alpha virt. eigenvalues --    2.21631   2.22409   2.23986   2.24569   2.27418
 Alpha virt. eigenvalues --    2.30123   2.31273   2.33468   2.35636   2.37342
 Alpha virt. eigenvalues --    2.39527   2.43328   2.45948   2.50299   2.51931
 Alpha virt. eigenvalues --    2.55294   2.57716   2.60375   2.63065   2.69048
 Alpha virt. eigenvalues --    2.70462   2.73551   2.83134   2.85679   2.86360
 Alpha virt. eigenvalues --    2.93220   2.96276   2.97638   2.99174   3.87534
 Alpha virt. eigenvalues --    3.98460   4.08368   4.11974   4.21700   4.27961
 Alpha virt. eigenvalues --    4.28133   4.37269   4.45770   4.53404   4.63045
 Alpha virt. eigenvalues --    4.64693
          Condensed to atoms (all electrons):
               1          2          3          4          5          6
     1  C    5.375468   0.311328  -0.084985  -0.132117  -0.000305   0.000495
     2  C    0.311328   4.492466   0.569661   0.333294  -0.026601  -0.008441
     3  O   -0.084985   0.569661   8.025234  -0.076510  -0.001311  -0.000247
     4  C   -0.132117   0.333294  -0.076510   5.311366   0.349783  -0.050896
     5  C   -0.000305  -0.026601  -0.001311   0.349783   4.996850   0.388903
     6  C    0.000495  -0.008441  -0.000247  -0.050896   0.388903   5.137193
     7  C    0.000862  -0.001859  -0.000002  -0.003818  -0.037672   0.187745
     8  C    0.000121   0.000203  -0.000002   0.003702  -0.016909   0.289124
     9  C   -0.000002  -0.000009  -0.000000   0.000164  -0.008841  -0.038210
    10  C    0.000006  -0.000010   0.000000  -0.000065   0.001845  -0.034137
    11  C   -0.000397   0.000154  -0.000000  -0.001364  -0.004481  -0.014114
    12  O   -0.000209   0.000037  -0.000000  -0.000759   0.000030   0.001479
    13  H    0.350891  -0.018585   0.001112   0.005212   0.000044   0.000291
    14  H    0.358806  -0.021050  -0.001067   0.003408  -0.000056  -0.002153
    15  H    0.339548  -0.019313   0.003538   0.004835  -0.000994  -0.000573
    16  H    0.002946  -0.025378   0.003008   0.339908  -0.031665  -0.007446
    17  H    0.007281  -0.027191   0.003663   0.344332  -0.024346   0.005407
    18  H   -0.000369   0.003926  -0.000057  -0.037710   0.374808  -0.039605
    19  H    0.000730  -0.003185   0.002327  -0.045563   0.370539  -0.034062
    20  H   -0.000828   0.003183   0.000053  -0.004093  -0.042754   0.373940
    21  H   -0.000046   0.000039   0.000000   0.000211   0.002564  -0.023406
    22  H   -0.000000  -0.000003  -0.000000  -0.000127  -0.000951  -0.001825
    23  H   -0.000000   0.000001   0.000000  -0.000038   0.000982  -0.008150
    24  H   -0.000000   0.000000  -0.000000   0.000002   0.000263   0.005732
    25  H   -0.000002   0.000001   0.000000  -0.000009   0.000232  -0.008202
    26  H   -0.000002  -0.000002  -0.000000   0.000004  -0.000043  -0.002021
    27  H   -0.000000   0.000000  -0.000000   0.000002  -0.000080   0.005429
    28  H   -0.000033   0.000043   0.000000  -0.000407   0.001066   0.002926
               7          8          9         10         11         12
     1  C    0.000862   0.000121  -0.000002   0.000006  -0.000397  -0.000209
     2  C   -0.001859   0.000203  -0.000009  -0.000010   0.000154   0.000037
     3  O   -0.000002  -0.000002  -0.000000   0.000000  -0.000000  -0.000000
     4  C   -0.003818   0.003702   0.000164  -0.000065  -0.001364  -0.000759
     5  C   -0.037672  -0.016909  -0.008841   0.001845  -0.004481   0.000030
     6  C    0.187745   0.289124  -0.038210  -0.034137  -0.014114   0.001479
     7  C    5.443889   0.199186  -0.035215  -0.021406   0.336678  -0.068898
     8  C    0.199186   4.897325   0.398149   0.384789  -0.007648   0.003470
     9  C   -0.035215   0.398149   5.112320  -0.061220  -0.006697   0.000101
    10  C   -0.021406   0.384789  -0.061220   5.105901   0.001815  -0.000058
    11  C    0.336678  -0.007648  -0.006697   0.001815   4.581222   0.528663
    12  O   -0.068898   0.003470   0.000101  -0.000058   0.528663   8.001475
    13  H    0.000037  -0.000007   0.000000   0.000000   0.000001  -0.000000
    14  H   -0.000010   0.000077  -0.000000  -0.000022   0.000007  -0.000000
    15  H   -0.000528   0.000136  -0.000000  -0.000004   0.000710   0.001195
    16  H    0.002003  -0.000134   0.000041  -0.000008   0.005717   0.001147
    17  H    0.000146  -0.000104  -0.000001   0.000002  -0.000016   0.000004
    18  H   -0.004236  -0.007221   0.002215   0.000110   0.001549   0.000061
    19  H    0.005244  -0.001989   0.000685   0.000056   0.000067  -0.000003
    20  H   -0.023604  -0.030224   0.002891  -0.006015   0.001712   0.000007
    21  H    0.355386  -0.026268   0.002603  -0.007296  -0.027771   0.001421
    22  H   -0.006843  -0.026721   0.365920   0.005121   0.000591   0.000008
    23  H    0.005011  -0.033061   0.370117  -0.002343   0.000184  -0.000000
    24  H   -0.002868  -0.032584   0.368730  -0.006137   0.000359  -0.000014
    25  H    0.004869  -0.034753  -0.001398   0.369980  -0.000066   0.000000
    26  H   -0.004319  -0.030345   0.005062   0.367349   0.000127   0.000001
    27  H   -0.003567  -0.031809  -0.005145   0.367376  -0.000033  -0.000003
    28  H   -0.116419   0.005915  -0.000902  -0.000096   0.344295  -0.051843
              13         14         15         16         17         18
     1  C    0.350891   0.358806   0.339548   0.002946   0.007281  -0.000369
     2  C   -0.018585  -0.021050  -0.019313  -0.025378  -0.027191   0.003926
     3  O    0.001112  -0.001067   0.003538   0.003008   0.003663  -0.000057
     4  C    0.005212   0.003408   0.004835   0.339908   0.344332  -0.037710
     5  C    0.000044  -0.000056  -0.000994  -0.031665  -0.024346   0.374808
     6  C    0.000291  -0.002153  -0.000573  -0.007446   0.005407  -0.039605
     7  C    0.000037  -0.000010  -0.000528   0.002003   0.000146  -0.004236
     8  C   -0.000007   0.000077   0.000136  -0.000134  -0.000104  -0.007221
     9  C    0.000000  -0.000000  -0.000000   0.000041  -0.000001   0.002215
    10  C    0.000000  -0.000022  -0.000004  -0.000008   0.000002   0.000110
    11  C    0.000001   0.000007   0.000710   0.005717  -0.000016   0.001549
    12  O   -0.000000  -0.000000   0.001195   0.001147   0.000004   0.000061
    13  H    0.521446  -0.016279  -0.026625  -0.000208  -0.000230   0.000005
    14  H   -0.016279   0.518653  -0.025154   0.000110  -0.000151   0.000025
    15  H   -0.026625  -0.025154   0.550802   0.000643  -0.000101   0.000002
    16  H   -0.000208   0.000110   0.000643   0.577931  -0.030638  -0.004413
    17  H   -0.000230  -0.000151  -0.000101  -0.030638   0.564190  -0.004724
    18  H    0.000005   0.000025   0.000002  -0.004413  -0.004724   0.593156
    19  H   -0.000008   0.000032  -0.000028   0.005496  -0.001904  -0.032455
    20  H    0.000145   0.005258  -0.001042  -0.000024  -0.000113   0.005604
    21  H   -0.000016  -0.000013   0.001524  -0.000074  -0.000002  -0.000155
    22  H    0.000000  -0.000000   0.000000  -0.000016   0.000008   0.003719
    23  H   -0.000000   0.000000  -0.000000   0.000000   0.000001   0.000711
    24  H   -0.000000  -0.000000   0.000000  -0.000000  -0.000000  -0.000164
    25  H    0.000000   0.000001   0.000000   0.000000   0.000000   0.000018
    26  H    0.000000   0.000029   0.000000  -0.000000   0.000000  -0.000001
    27  H   -0.000000  -0.000000   0.000000   0.000000  -0.000000  -0.000001
    28  H    0.000000  -0.000001   0.000104   0.000214   0.000022   0.000615
              19         20         21         22         23         24
     1  C    0.000730  -0.000828  -0.000046  -0.000000  -0.000000  -0.000000
     2  C   -0.003185   0.003183   0.000039  -0.000003   0.000001   0.000000
     3  O    0.002327   0.000053   0.000000  -0.000000   0.000000  -0.000000
     4  C   -0.045563  -0.004093   0.000211  -0.000127  -0.000038   0.000002
     5  C    0.370539  -0.042754   0.002564  -0.000951   0.000982   0.000263
     6  C   -0.034062   0.373940  -0.023406  -0.001825  -0.008150   0.005732
     7  C    0.005244  -0.023604   0.355386  -0.006843   0.005011  -0.002868
     8  C   -0.001989  -0.030224  -0.026268  -0.026721  -0.033061  -0.032584
     9  C    0.000685   0.002891   0.002603   0.365920   0.370117   0.368730
    10  C    0.000056  -0.006015  -0.007296   0.005121  -0.002343  -0.006137
    11  C    0.000067   0.001712  -0.027771   0.000591   0.000184   0.000359
    12  O   -0.000003   0.000007   0.001421   0.000008  -0.000000  -0.000014
    13  H   -0.000008   0.000145  -0.000016   0.000000  -0.000000  -0.000000
    14  H    0.000032   0.005258  -0.000013  -0.000000   0.000000  -0.000000
    15  H   -0.000028  -0.001042   0.001524   0.000000  -0.000000   0.000000
    16  H    0.005496  -0.000024  -0.000074  -0.000016   0.000000  -0.000000
    17  H   -0.001904  -0.000113  -0.000002   0.000008   0.000001  -0.000000
    18  H   -0.032455   0.005604  -0.000155   0.003719   0.000711  -0.000164
    19  H    0.578111  -0.006057  -0.000088   0.000091  -0.000075  -0.000022
    20  H   -0.006057   0.574364  -0.007394  -0.000126   0.000259  -0.000109
    21  H   -0.000088  -0.007394   0.558681  -0.000052  -0.000102   0.000135
    22  H    0.000091  -0.000126  -0.000052   0.566256  -0.029421  -0.029659
    23  H   -0.000075   0.000259  -0.000102  -0.029421   0.568617  -0.032387
    24  H   -0.000022  -0.000109   0.000135  -0.029659  -0.032387   0.567541
    25  H   -0.000047   0.001670   0.000049  -0.000077   0.003682  -0.000452
    26  H    0.000004   0.002727   0.004203  -0.000191  -0.000084   0.000024
    27  H   -0.000004   0.000096   0.000778  -0.000004  -0.000501   0.006047
    28  H    0.000022  -0.000213   0.005537   0.006242  -0.000022  -0.000097
              25         26         27         28
     1  C   -0.000002  -0.000002  -0.000000  -0.000033
     2  C    0.000001  -0.000002   0.000000   0.000043
     3  O    0.000000  -0.000000  -0.000000   0.000000
     4  C   -0.000009   0.000004   0.000002  -0.000407
     5  C    0.000232  -0.000043  -0.000080   0.001066
     6  C   -0.008202  -0.002021   0.005429   0.002926
     7  C    0.004869  -0.004319  -0.003567  -0.116419
     8  C   -0.034753  -0.030345  -0.031809   0.005915
     9  C   -0.001398   0.005062  -0.005145  -0.000902
    10  C    0.369980   0.367349   0.367376  -0.000096
    11  C   -0.000066   0.000127  -0.000033   0.344295
    12  O    0.000000   0.000001  -0.000003  -0.051843
    13  H    0.000000   0.000000  -0.000000   0.000000
    14  H    0.000001   0.000029  -0.000000  -0.000001
    15  H    0.000000   0.000000   0.000000   0.000104
    16  H    0.000000  -0.000000   0.000000   0.000214
    17  H    0.000000   0.000000  -0.000000   0.000022
    18  H    0.000018  -0.000001  -0.000001   0.000615
    19  H   -0.000047   0.000004  -0.000004   0.000022
    20  H    0.001670   0.002727   0.000096  -0.000213
    21  H    0.000049   0.004203   0.000778   0.005537
    22  H   -0.000077  -0.000191  -0.000004   0.006242
    23  H    0.003682  -0.000084  -0.000501  -0.000022
    24  H   -0.000452   0.000024   0.006047  -0.000097
    25  H    0.572449  -0.029441  -0.031717   0.000005
    26  H   -0.029441   0.566408  -0.028066   0.000004
    27  H   -0.031717  -0.028066   0.567669  -0.000006
    28  H    0.000005   0.000004  -0.000006   0.691731
 Mulliken charges:
               1
     1  C   -0.529186
     2  C    0.437292
     3  O   -0.444416
     4  C   -0.342747
     5  C   -0.290900
     6  C   -0.125175
     7  C   -0.209791
     8  C    0.097580
     9  C   -0.471359
    10  C   -0.465531
    11  C    0.258734
    12  O   -0.417314
    13  H    0.182772
    14  H    0.179549
    15  H    0.171325
    16  H    0.160841
    17  H    0.164466
    18  H    0.144586
    19  H    0.162084
    20  H    0.150687
    21  H    0.159551
    22  H    0.148058
    23  H    0.156617
    24  H    0.155659
    25  H    0.153205
    26  H    0.148575
    27  H    0.153540
    28  H    0.111296
 Sum of Mulliken charges =  -0.00000
 Mulliken charges with hydrogens summed into heavy atoms:
               1
     1  C    0.004461
     2  C    0.437292
     3  O   -0.444416
     4  C   -0.017439
     5  C    0.015770
     6  C    0.025513
     7  C   -0.050240
     8  C    0.097580
     9  C   -0.011025
    10  C   -0.010211
    11  C    0.370030
    12  O   -0.417314
 Electronic spatial extent (au):  <R**2>=           2462.0786
 Charge=             -0.0000 electrons
 Dipole moment (field-independent basis, Debye):
    X=             -2.9533    Y=             -1.9029    Z=             -0.1322  Tot=              3.5157
 Quadrupole moment (field-independent basis, Debye-Ang):
   XX=            -84.4311   YY=            -83.7358   ZZ=            -69.4215
   XY=              8.8102   XZ=              3.2780   YZ=             -2.7281
 Traceless Quadrupole moment (field-independent basis, Debye-Ang):
   XX=             -5.2349   YY=             -4.5397   ZZ=              9.7746
   XY=              8.8102   XZ=              3.2780   YZ=             -2.7281
 Octapole moment (field-independent basis, Debye-Ang**2):
  XXX=            -61.5168  YYY=            -33.0403  ZZZ=              0.7080  XYY=              9.2206
  XXY=             24.0491  XXZ=              8.3149  XZZ=              5.5913  YZZ=              2.7857
  YYZ=             -4.4580  XYZ=              1.0131
 Hexadecapole moment (field-independent basis, Debye-Ang**3):
 XXXX=          -2184.5960 YYYY=           -841.2199 ZZZZ=           -487.9087 XXXY=             75.9432
 XXXZ=             30.2818 YYYX=             19.9195 YYYZ=             -6.9282 ZZZX=             -2.3702
 ZZZY=              0.1026 XXYY=           -467.8624 XXZZ=           -397.3758 YYZZ=           -202.4548
 XXYZ=             -4.5511 YYXZ=              7.1617 ZZXY=             -8.2533
 N-N= 7.246515762906D+02 E-N=-2.706788494607D+03  KE= 5.361634037714D+02
 Calling FoFJK, ICntrl=      2127 FMM=F ISym2X=0 I1Cent= 0 IOpClX= 0 NMat=1 NMatS=1 NMatT=0.
 ***** Axes restored to original set *****
 -------------------------------------------------------------------
 Center     Atomic                   Forces (Hartrees/Bohr)
 Number     Number              X              Y              Z
 -------------------------------------------------------------------
      1        6           0.010374245    0.007066141    0.006375538
      2        6          -0.024475960    0.004870291    0.011524570
      3        8           0.016457005   -0.006178294   -0.009541449
      4        6          -0.000196351    0.002409652    0.016787967
      5        6           0.001050300   -0.008210459    0.000672945
      6        6          -0.009140638   -0.012064675   -0.009067580
      7        6           0.005669148    0.003915252   -0.005984237
      8        6          -0.008633275    0.008079154    0.007482378
      9        6           0.002786929   -0.004950952    0.001771260
     10        6           0.001095996    0.003347043   -0.000720803
     11        6           0.004094397    0.020653412   -0.002797998
     12        8          -0.004141265   -0.010317771    0.002143836
     13        1          -0.003685643    0.001291341   -0.001869253
     14        1           0.000068733    0.001407508   -0.002054579
     15        1          -0.000499368   -0.001049856   -0.005288450
     16        1           0.002959693   -0.002706645   -0.004666925
     17        1          -0.001984088    0.000767782   -0.001723838
     18        1           0.000011873   -0.000997596    0.000279248
     19        1          -0.000021480   -0.000356916    0.001903121
     20        1           0.008568126    0.004480623   -0.004755439
     21        1           0.001673048   -0.001771807    0.000328455
     22        1          -0.000659766   -0.000317250    0.000749901
     23        1          -0.000567996   -0.001355717   -0.000830064
     24        1           0.000274935   -0.001338204   -0.000200217
     25        1          -0.000939455   -0.001633081   -0.001741246
     26        1          -0.000668109   -0.000317136    0.000863714
     27        1          -0.000014378   -0.000578391   -0.001477447
     28        1           0.000543345   -0.004143449    0.001836594
 -------------------------------------------------------------------
 Cartesian Forces:  Max     0.024475960 RMS     0.006164696

 GradGradGradGradGradGradGradGradGradGradGradGradGradGradGradGradGradGrad
 Berny optimization.
 FormGI is forming the generalized inverse of G from B-inverse, IUseBI=4.
 Internal  Forces:  Max     0.019995361 RMS     0.003669993
 Search for a local minimum.
 Step number   1 out of a maximum of  155
 All quantities printed in internal units (Hartrees-Bohrs-Radians)
 Mixed Optimization -- RFO/linear search
 Second derivative matrix not updated -- first step.
 ITU=  0
     Eigenvalues ---    0.00405   0.00574   0.00595   0.00641   0.00681
     Eigenvalues ---    0.00688   0.00726   0.00984   0.00988   0.01887
     Eigenvalues ---    0.01921   0.02230   0.02838   0.03624   0.04011
     Eigenvalues ---    0.04203   0.04332   0.04967   0.05319   0.05492
     Eigenvalues ---    0.05614   0.05739   0.05886   0.07213   0.07557
     Eigenvalues ---    0.08542   0.08949   0.09553   0.09740   0.12073
     Eigenvalues ---    0.12333   0.12911   0.15846   0.16000   0.16000
     Eigenvalues ---    0.16000   0.16000   0.16000   0.16000   0.16000
     Eigenvalues ---    0.16000   0.16000   0.16000   0.16868   0.18851
     Eigenvalues ---    0.21914   0.21925   0.22002   0.23454   0.24979
     Eigenvalues ---    0.25000   0.25676   0.29672   0.30340   0.30904
     Eigenvalues ---    0.31060   0.31712   0.31767   0.32061   0.33583
     Eigenvalues ---    0.34007   0.34011   0.34092   0.34167   0.34235
     Eigenvalues ---    0.34246   0.34275   0.34291   0.34313   0.34332
     Eigenvalues ---    0.34366   0.34563   0.34605   0.34676   0.34920
     Eigenvalues ---    0.35159   0.90529   0.94187
 RFO step:  Lambda=-1.00326173D-02 EMin= 4.04531113D-03
 Linear search not attempted -- first point.
 Iteration  1 RMS(Cart)=  0.14565666 RMS(Int)=  0.00502111
 Iteration  2 RMS(Cart)=  0.00892398 RMS(Int)=  0.00038469
 Iteration  3 RMS(Cart)=  0.00003482 RMS(Int)=  0.00038389
 Iteration  4 RMS(Cart)=  0.00000001 RMS(Int)=  0.00038389
 Variable       Old X    -DE/DX   Delta X   Delta X   Delta X     New X
                                 (Linear)    (Quad)   (Total)
    R1        2.84674   0.00977   0.00000   0.02986   0.02986   2.87661
    R2        2.06773   0.00037   0.00000   0.00106   0.00106   2.06879
    R3        2.06203   0.00170   0.00000   0.00477   0.00477   2.06680
    R4        2.06390   0.00079   0.00000   0.00222   0.00222   2.06612
    R5        2.32690  -0.02000   0.00000  -0.02185  -0.02185   2.30506
    R6        2.85899   0.00755   0.00000   0.02356   0.02356   2.88255
    R7        2.88622   0.01164   0.00000   0.03794   0.03794   2.92416
    R8        2.06842   0.00235   0.00000   0.00667   0.00667   2.07510
    R9        2.07312  -0.00114   0.00000  -0.00325  -0.00325   2.06987
   R10        2.84033   0.01174   0.00000   0.03552   0.03552   2.87584
   R11        2.06717   0.00098   0.00000   0.00277   0.00277   2.06994
   R12        2.07319  -0.00000   0.00000  -0.00001  -0.00001   2.07318
   R13        2.86881   0.00209   0.00000   0.01273   0.01274   2.88155
   R14        2.86977  -0.00477   0.00000  -0.02269  -0.02284   2.84693
   R15        2.05417   0.00017   0.00000   0.00046   0.00046   2.05463
   R16        2.88058   0.00421   0.00000   0.01505   0.01519   2.89577
   R17        2.80349  -0.00081   0.00000  -0.00231  -0.00231   2.80118
   R18        2.05804  -0.00104   0.00000  -0.00289  -0.00289   2.05516
   R19        2.84572   0.00809   0.00000   0.02470   0.02470   2.87042
   R20        2.86197   0.00321   0.00000   0.01006   0.01006   2.87203
   R21        2.06321   0.00051   0.00000   0.00143   0.00143   2.06464
   R22        2.06935   0.00105   0.00000   0.00298   0.00298   2.07233
   R23        2.06916   0.00093   0.00000   0.00265   0.00265   2.07181
   R24        2.06869   0.00151   0.00000   0.00429   0.00429   2.07298
   R25        2.07174  -0.00058   0.00000  -0.00164  -0.00164   2.07010
   R26        2.06805   0.00125   0.00000   0.00355   0.00355   2.07160
   R27        2.31061  -0.00877   0.00000  -0.00921  -0.00921   2.30140
   R28        2.08040   0.00436   0.00000   0.01261   0.01261   2.09300
    A1        1.89752   0.00013   0.00000   0.00407   0.00366   1.90118
    A2        1.92319   0.00029   0.00000  -0.00728  -0.00728   1.91591
    A3        1.93734   0.00432   0.00000   0.03100   0.03070   1.96804
    A4        1.90191  -0.00275   0.00000  -0.02787  -0.02797   1.87394
    A5        1.87571   0.00170   0.00000   0.02829   0.02763   1.90333
    A6        1.92700  -0.00374   0.00000  -0.02800  -0.02792   1.89908
    A7        2.11265  -0.00289   0.00000  -0.00993  -0.01164   2.10101
    A8        2.05459   0.00648   0.00000   0.02609   0.02439   2.07898
    A9        2.11525  -0.00352   0.00000  -0.01237  -0.01408   2.10117
   A10        1.97265   0.00955   0.00000   0.04057   0.04078   2.01343
   A11        1.89214  -0.00035   0.00000   0.01483   0.01517   1.90731
   A12        1.87659  -0.00378   0.00000  -0.02015  -0.01977   1.85682
   A13        1.95601  -0.00604   0.00000  -0.03461  -0.03506   1.92094
   A14        1.90737  -0.00307   0.00000  -0.02240  -0.02240   1.88497
   A15        1.85370   0.00340   0.00000   0.02115   0.02076   1.87446
   A16        1.97770   0.01043   0.00000   0.05009   0.04997   2.02767
   A17        1.88463  -0.00363   0.00000  -0.02066  -0.02058   1.86405
   A18        1.90751  -0.00366   0.00000  -0.01229  -0.01302   1.89449
   A19        1.94652  -0.00338   0.00000  -0.01704  -0.01674   1.92978
   A20        1.88565  -0.00155   0.00000   0.00695   0.00672   1.89237
   A21        1.85791   0.00125   0.00000  -0.01068  -0.01093   1.84699
   A22        2.13969  -0.00017   0.00000  -0.00012   0.00005   2.13973
   A23        2.17937  -0.00326   0.00000  -0.02058  -0.02070   2.15867
   A24        1.91426   0.00677   0.00000   0.04839   0.04748   1.96174
   A25        2.06131  -0.00685   0.00000  -0.07420  -0.07411   1.98721
   A26        1.98579  -0.00244   0.00000   0.01073   0.01053   1.99632
   A27        2.12982  -0.00133   0.00000  -0.02116  -0.02089   2.10892
   A28        2.00963   0.00338   0.00000   0.02204   0.02196   2.03159
   A29        2.15125   0.00051   0.00000   0.01020   0.01025   2.16149
   A30        2.03278   0.00221   0.00000   0.00351   0.00336   2.03614
   A31        1.94257  -0.00161   0.00000  -0.00317  -0.00324   1.93933
   A32        2.09464  -0.00153   0.00000   0.00305   0.00298   2.09761
   A33        2.02488   0.00055   0.00000   0.00421   0.00435   2.02924
   A34        2.12520   0.00117   0.00000  -0.00618  -0.00620   2.11900
   A35        2.03340  -0.00282   0.00000  -0.01108  -0.01110   2.02230
   A36        1.97123   0.00126   0.00000   0.00428   0.00406   1.97529
   A37        1.98639   0.00003   0.00000   0.00089   0.00089   1.98727
   A38        1.91574   0.00086   0.00000   0.00407   0.00406   1.91980
   A39        1.92258   0.00122   0.00000   0.00747   0.00745   1.93003
   A40        1.87737  -0.00055   0.00000  -0.00371  -0.00371   1.87366
   A41        1.87114  -0.00045   0.00000  -0.00086  -0.00087   1.87026
   A42        1.88746  -0.00125   0.00000  -0.00880  -0.00881   1.87865
   A43        1.92251   0.00136   0.00000   0.00725   0.00725   1.92975
   A44        1.95334  -0.00102   0.00000  -0.00460  -0.00459   1.94875
   A45        1.93192   0.00107   0.00000   0.00562   0.00562   1.93754
   A46        1.87985  -0.00001   0.00000   0.00120   0.00120   1.88105
   A47        1.89709  -0.00165   0.00000  -0.01244  -0.01244   1.88465
   A48        1.87721   0.00017   0.00000   0.00239   0.00240   1.87961
   A49        2.10016   0.01017   0.00000   0.04489   0.04364   2.14381
   A50        2.06410  -0.00415   0.00000  -0.01557  -0.01681   2.04729
   A51        2.11826  -0.00595   0.00000  -0.02615  -0.02739   2.09087
    D1        0.75151  -0.00327   0.00000  -0.07174  -0.07198   0.67953
    D2       -2.42966  -0.00151   0.00000   0.03588   0.03569  -2.39398
    D3       -1.33177  -0.00017   0.00000  -0.03588  -0.03597  -1.36775
    D4        1.77023   0.00160   0.00000   0.07175   0.07170   1.84193
    D5        2.81117   0.00142   0.00000  -0.01644  -0.01618   2.79500
    D6       -0.37000   0.00319   0.00000   0.09118   0.09150  -0.27851
    D7       -1.36419  -0.00187   0.00000  -0.13683  -0.13705  -1.50124
    D8        0.81527  -0.00323   0.00000  -0.14199  -0.14165   0.67362
    D9        2.81248  -0.00136   0.00000  -0.12021  -0.12016   2.69232
   D10        1.73776  -0.00008   0.00000  -0.02897  -0.02931   1.70845
   D11       -2.36597  -0.00145   0.00000  -0.03414  -0.03391  -2.39988
   D12       -0.36876   0.00042   0.00000  -0.01235  -0.01242  -0.38118
   D13        1.08092   0.00171   0.00000   0.02572   0.02564   1.10656
   D14       -3.03713   0.00180   0.00000   0.02275   0.02250  -3.01462
   D15       -1.02289  -0.00061   0.00000  -0.00753  -0.00750  -1.03039
   D16       -1.06344  -0.00043   0.00000   0.00193   0.00226  -1.06118
   D17        1.10170  -0.00033   0.00000  -0.00104  -0.00088   1.10082
   D18        3.11594  -0.00275   0.00000  -0.03132  -0.03088   3.08506
   D19       -3.11334   0.00098   0.00000   0.01101   0.01081  -3.10253
   D20       -0.94821   0.00107   0.00000   0.00803   0.00768  -0.94053
   D21        1.06603  -0.00134   0.00000  -0.02225  -0.02233   1.04371
   D22        1.21066  -0.00191   0.00000  -0.05471  -0.05514   1.15553
   D23        2.50589  -0.00060   0.00000  -0.05384  -0.05433   2.45156
   D24       -1.32594   0.00063   0.00000   0.01111   0.01143  -1.31451
   D25       -0.92033  -0.00226   0.00000  -0.05153  -0.05175  -0.97209
   D26        0.37489  -0.00095   0.00000  -0.05066  -0.05095   0.32395
   D27        2.82625   0.00028   0.00000   0.01429   0.01481   2.84106
   D28       -2.95637  -0.00093   0.00000  -0.03319  -0.03322  -2.98960
   D29       -1.66115   0.00037   0.00000  -0.03232  -0.03242  -1.69356
   D30        0.79021   0.00161   0.00000   0.03263   0.03334   0.82355
   D31        0.03411  -0.00270   0.00000  -0.03576  -0.03643  -0.00232
   D32       -2.41079  -0.00288   0.00000  -0.03231  -0.03293  -2.44371
   D33        2.52327  -0.00086   0.00000  -0.06499  -0.06428   2.45900
   D34        0.07837  -0.00104   0.00000  -0.06154  -0.06077   0.01760
   D35        0.01017   0.00031   0.00000  -0.01738  -0.01742  -0.00726
   D36        2.48031   0.00125   0.00000   0.00187   0.00183   2.48214
   D37       -2.41706  -0.00401   0.00000  -0.09650  -0.09641  -2.51347
   D38        0.05308  -0.00308   0.00000  -0.07726  -0.07716  -0.02407
   D39        0.03406  -0.00145   0.00000  -0.04668  -0.04672  -0.01267
   D40       -2.50013  -0.00110   0.00000  -0.02487  -0.02507  -2.52520
   D41        2.55215   0.00003   0.00000  -0.02906  -0.02899   2.52315
   D42        0.01796   0.00038   0.00000  -0.00725  -0.00734   0.01062
   D43       -2.29076  -0.00329   0.00000  -0.06731  -0.06739  -2.35814
   D44        0.81231  -0.00143   0.00000   0.02451   0.02439   0.83670
   D45        2.72365   0.00120   0.00000  -0.04274  -0.04266   2.68099
   D46       -0.45647   0.00306   0.00000   0.04908   0.04912  -0.40735
   D47        0.17765  -0.00136   0.00000  -0.06136  -0.06129   0.11636
   D48       -3.00247   0.00050   0.00000   0.03046   0.03049  -2.97198
   D49       -0.77696   0.00044   0.00000   0.02895   0.02905  -0.74791
   D50        1.32795   0.00037   0.00000   0.02774   0.02784   1.35578
   D51       -2.87881   0.00012   0.00000   0.02402   0.02411  -2.85470
   D52        0.46337   0.00138   0.00000   0.03607   0.03602   0.49938
   D53        2.56828   0.00131   0.00000   0.03486   0.03480   2.60308
   D54       -1.63848   0.00105   0.00000   0.03114   0.03108  -1.60741
   D55        3.01705  -0.00025   0.00000   0.01027   0.01023   3.02728
   D56       -1.16123  -0.00032   0.00000   0.00905   0.00901  -1.15222
   D57        0.91519  -0.00058   0.00000   0.00533   0.00529   0.92048
   D58       -1.32168  -0.00053   0.00000  -0.03733  -0.03739  -1.35907
   D59        0.76912  -0.00030   0.00000  -0.03394  -0.03401   0.73511
   D60        2.86297  -0.00004   0.00000  -0.03014  -0.03021   2.83277
   D61       -2.50152  -0.00090   0.00000  -0.04285  -0.04278  -2.54430
   D62       -0.41072  -0.00067   0.00000  -0.03946  -0.03939  -0.45012
   D63        1.68313  -0.00041   0.00000  -0.03566  -0.03560   1.64754
   D64        1.19506  -0.00070   0.00000  -0.01989  -0.01989   1.17517
   D65       -2.99732  -0.00047   0.00000  -0.01651  -0.01651  -3.01383
   D66       -0.90347  -0.00022   0.00000  -0.01271  -0.01271  -0.91618
         Item               Value     Threshold  Converged?
 Maximum Force            0.019995     0.000450     NO 
 RMS     Force            0.003670     0.000300     NO 
 Maximum Displacement     0.720272     0.001800     NO 
 RMS     Displacement     0.148213     0.001200     NO 
 Predicted change in Energy=-5.957811D-03
 GradGradGradGradGradGradGradGradGradGradGradGradGradGradGradGradGradGrad

                          Input orientation:                          
 ---------------------------------------------------------------------
 Center     Atomic      Atomic             Coordinates (Angstroms)
 Number     Number       Type             X           Y           Z
 ---------------------------------------------------------------------
      1          6           0        1.159220    0.213515    0.284251
      2          6           0        0.402162   -0.805530    1.124256
      3          8           0       -0.594080   -0.474765    1.745521
      4          6           0        0.955667   -2.221315    1.250614
      5          6           0        0.541906   -3.197738    0.123743
      6          6           0        1.023437   -2.848983   -1.277138
      7          6           0        2.497802   -2.862136   -1.666040
      8          6           0        1.514265   -3.869981   -2.270257
      9          6           0        1.557793   -5.341160   -1.894788
     10          6           0        1.131462   -3.634284   -3.722062
     11          6           0        3.541546   -3.219106   -0.675868
     12          8           0        4.574638   -2.586929   -0.548500
     13          1           0        1.178161    1.169467    0.817441
     14          1           0        0.633984    0.377244   -0.661006
     15          1           0        2.185631   -0.095132    0.068337
     16          1           0        2.050158   -2.177189    1.327761
     17          1           0        0.576252   -2.618007    2.198468
     18          1           0        0.899762   -4.190394    0.417677
     19          1           0       -0.552834   -3.267293    0.106808
     20          1           0        0.459885   -2.029790   -1.716998
     21          1           0        2.833547   -2.057821   -2.316502
     22          1           0        1.940203   -5.529444   -0.888805
     23          1           0        0.550584   -5.771649   -1.947710
     24          1           0        2.194272   -5.898291   -2.592283
     25          1           0        0.089770   -3.929294   -3.898707
     26          1           0        1.232197   -2.579634   -4.000583
     27          1           0        1.767848   -4.219203   -4.396327
     28          1           0        3.376761   -4.132029   -0.070785
 ---------------------------------------------------------------------
                    Distance matrix (angstroms):
                    1          2          3          4          5
     1  C    0.000000
     2  C    1.522234   0.000000
     3  O    2.383926   1.219784   0.000000
     4  C    2.627487   1.525380   2.386857   0.000000
     5  C    3.470372   2.596770   3.366780   1.547397   0.000000
     6  C    3.440242   3.213779   4.170101   2.605397   1.521832
     7  C    3.880085   4.050566   5.186330   3.360908   2.672355
     8  C    4.829752   4.706416   5.665605   3.927679   2.669949
     9  C    5.980090   5.569744   6.447031   4.470967   3.114603
    10  C    5.554896   5.658668   6.546337   5.172514   3.915146
    11  C    4.287212   4.349888   5.522493   3.375453   3.104461
    12  O    4.494557   4.835396   6.036507   4.058009   4.133755
    13  H    1.094758   2.144043   2.589531   3.425573   4.467496
    14  H    1.093705   2.154032   2.832920   3.241957   3.661258
    15  H    1.093344   2.190980   3.268618   2.726031   3.511562
    16  H    2.756473   2.153777   3.172501   1.098093   2.183118
    17  H    3.467217   2.114075   2.483610   1.095330   2.154472
    18  H    4.413562   3.493446   4.219079   2.138733   1.095364
    19  H    3.883123   2.829752   3.238101   2.162855   1.097078
    20  H    3.086500   3.094329   3.939288   3.014831   2.181550
    21  H    3.837480   4.395302   5.545694   4.034536   3.536358
    22  H    5.913338   5.360350   6.237952   4.060806   2.901266
    23  H    6.416718   5.841348   6.557987   4.795648   3.303939
    24  H    6.833736   6.554428   7.483721   5.460966   4.171342
    25  H    5.983622   5.923314   6.652724   5.493858   4.113357
    26  H    5.115350   5.486381   6.386194   5.270667   4.227129
    27  H    6.475123   6.632879   7.571117   6.044761   4.793470
    28  H    4.891553   4.619736   5.695799   3.355386   2.991178
                    6          7          8          9         10
     6  C    0.000000
     7  C    1.524850   0.000000
     8  C    1.506530   1.532375   0.000000
     9  C    2.622588   2.661108   1.518959   0.000000
    10  C    2.570218   2.586566   1.519813   2.536556   0.000000
    11  C    2.615222   1.482319   2.659997   3.150262   3.906428
    12  O    3.634641   2.374423   3.738523   4.301119   4.798324
    13  H    4.534220   4.915583   5.919703   7.063184   6.609486
    14  H    3.307542   3.870077   4.626392   5.922481   5.070494
    15  H    3.277910   3.280522   4.491017   5.636386   5.291880
    16  H    2.879403   3.103608   4.012288   4.542902   5.335527
    17  H    3.511860   4.322774   4.734639   5.013356   6.032724
    18  H    2.164965   2.942766   2.775835   2.665476   4.183346
    19  H    2.138907   3.551552   3.207268   3.572403   4.199022
    20  H    1.087265   2.201931   2.191829   3.493162   2.654373
    21  H    2.232199   1.087543   2.242001   3.547634   2.712551
    22  H    2.859393   2.833644   2.200829   1.092561   3.503290
    23  H    3.035660   3.512301   2.156167   1.096628   2.837970
    24  H    3.521183   3.188775   2.163366   1.096357   2.744393
    25  H    2.985202   3.452860   2.164383   2.857297   1.096975
    26  H    2.744682   2.670515   2.176830   3.488038   1.095449
    27  H    3.487260   3.135112   2.169432   2.749655   1.096244
    28  H    2.939324   2.220368   2.894000   2.845633   4.315200
                   11         12         13         14         15
    11  C    0.000000
    12  O    1.217846   0.000000
    13  H    5.203377   5.245224   0.000000
    14  H    4.624702   4.932316   1.763392   0.000000
    15  H    3.485908   3.506693   1.781956   1.778395   0.000000
    16  H    2.706355   3.171946   3.495842   3.533535   2.437101
    17  H    4.173259   4.851175   4.076087   4.141431   3.673208
    18  H    3.019645   4.124234   5.381954   4.700799   4.306584
    19  H    4.168795   5.213761   4.815204   3.909058   4.190857
    20  H    3.463388   4.313581   4.144219   2.634244   3.147780
    21  H    2.131086   2.537161   4.793463   3.675361   3.155851
    22  H    2.819096   3.964145   6.954667   6.053682   5.523414
    23  H    4.132664   5.319139   7.497934   6.282631   6.241848
    24  H    3.558908   4.561612   7.912768   6.748827   6.384013
    25  H    4.775543   5.756724   7.030222   5.415270   5.901768
    26  H    4.098261   4.805085   6.105083   4.500418   4.861881
    27  H    4.241228   5.034695   7.521228   6.030389   6.092267
    28  H    1.107568   2.012574   5.807637   5.310813   4.211257
                   16         17         18         19         20
    16  H    0.000000
    17  H    1.767725   0.000000
    18  H    2.490915   2.397557   0.000000
    19  H    3.074837   2.464031   1.748940   0.000000
    20  H    3.438205   3.961113   3.068963   2.425549   0.000000
    21  H    3.729423   5.078794   3.970280   4.336224   2.448358
    22  H    4.020308   4.457364   2.140670   3.510528   3.889064
    23  H    5.088966   5.209310   2.866592   3.422043   3.750062
    24  H    5.406858   6.027400   3.694932   4.664100   4.328916
    25  H    5.850552   6.255532   4.399480   4.110394   2.916326
    26  H    5.405762   6.233777   4.714454   4.530991   2.472560
    27  H    6.083971   6.890214   4.891731   5.154602   3.699067
    28  H    2.745397   3.909556   2.525376   4.027534   3.954439
                   21         22         23         24         25
    21  H    0.000000
    22  H    3.858568   0.000000
    23  H    4.374980   1.763798   0.000000
    24  H    3.903068   1.761372   1.770091   0.000000
    25  H    3.678872   3.878671   2.722684   3.164272   0.000000
    26  H    2.381751   4.345781   3.855884   3.731271   1.771187
    27  H    3.183231   3.748219   3.144446   2.501150   1.774152
    28  H    3.104943   2.164630   3.768087   3.297865   5.049594
                   26         27         28
    26  H    0.000000
    27  H    1.769667   0.000000
    28  H    4.738396   4.615898   0.000000
 Stoichiometry    C10H16O2
 Framework group  C1[X(C10H16O2)]
 Deg. of freedom    78
 Full point group                 C1      NOp   1
 Largest Abelian subgroup         C1      NOp   1
 Largest concise Abelian subgroup C1      NOp   1
                         Standard orientation:                         
 ---------------------------------------------------------------------
 Center     Atomic      Atomic             Coordinates (Angstroms)
 Number     Number       Type             X           Y           Z
 ---------------------------------------------------------------------
      1          6           0        2.606797    0.481025    1.354394
      2          6           0        2.741388   -0.256861    0.029779
      3          8           0        3.697599   -0.985701   -0.175955
      4          6           0        1.713854   -0.003474   -1.068745
      5          6           0        0.432915   -0.868046   -0.990329
      6          6           0       -0.439327   -0.665703    0.240208
      7          6           0       -1.178693    0.638739    0.517584
      8          6           0       -1.945331   -0.650362    0.203484
      9          6           0       -2.679056   -0.834052   -1.113764
     10          6           0       -2.653474   -1.303864    1.378772
     11          6           0       -1.073463    1.785063   -0.416299
     12          8           0       -0.895115    2.929373   -0.039606
     13          1           0        3.596152    0.827481    1.670053
     14          1           0        2.239895   -0.204068    2.123954
     15          1           0        1.930844    1.338273    1.294278
     16          1           0        1.449031    1.062161   -1.078711
     17          1           0        2.214496   -0.225427   -2.017344
     18          1           0       -0.138574   -0.670889   -1.903758
     19          1           0        0.721838   -1.925205   -1.040524
     20          1           0       -0.016724   -1.129108    1.128357
     21          1           0       -1.193549    0.975769    1.551479
     22          1           0       -2.241996   -0.275414   -1.944783
     23          1           0       -2.681423   -1.893431   -1.397143
     24          1           0       -3.723131   -0.512505   -1.021495
     25          1           0       -2.639140   -2.396143    1.278394
     26          1           0       -2.175598   -1.049228    2.331034
     27          1           0       -3.700163   -0.982868    1.434921
     28          1           0       -1.215487    1.576438   -1.494729
 ---------------------------------------------------------------------
 Rotational constants (GHZ):           1.2500921           0.5567888           0.4833789
 Standard basis: 6-31G(d) (6D, 7F)
 There are   212 symmetry adapted cartesian basis functions of A   symmetry.
 There are   212 symmetry adapted basis functions of A   symmetry.
   212 basis functions,   400 primitive gaussians,   212 cartesian basis functions
    46 alpha electrons       46 beta electrons
       nuclear repulsion energy       717.3104603613 Hartrees.
 NAtoms=   28 NActive=   28 NUniq=   28 SFac= 1.00D+00 NAtFMM=   60 NAOKFM=F Big=F
 Integral buffers will be    131072 words long.
 Raffenetti 2 integral format.
 Two-electron integral symmetry is turned on.
 Nuclear repulsion after empirical dispersion term =      717.2622904878 Hartrees.
 One-electron integrals computed using PRISM.
 NBasis=   212 RedAO= T EigKep=  2.65D-03  NBF=   212
 NBsUse=   212 1.00D-06 EigRej= -1.00D+00 NBFU=   212
 Initial guess from the checkpoint file:  "JID_2680.chk"
 B after Tr=     0.000000    0.000000    0.000000
         Rot=    0.998398    0.054335   -0.002907    0.015497 Ang=   6.49 deg.
 ExpMin= 1.61D-01 ExpMax= 5.48D+03 ExpMxC= 8.25D+02 IAcc=2 IRadAn=         4 AccDes= 0.00D+00
 Harris functional with IExCor=  402 and IRadAn=       4 diagonalized for initial guess.
 HarFok:  IExCor=  402 AccDes= 0.00D+00 IRadAn=         4 IDoV= 1 UseB2=F ITyADJ=14
 ICtDFT=  3500011 ScaDFX=  1.000000  1.000000  1.000000  1.000000
 FoFCou: FMM=F IPFlag=           0 FMFlag=      100000 FMFlg1=           0
         NFxFlg=           0 DoJE=T BraDBF=F KetDBF=T FulRan=T
         wScrn=  0.000000 ICntrl=       500 IOpCl=  0 I1Cent=   200000004 NGrid=           0
         NMat0=    1 NMatS0=      1 NMatT0=    0 NMatD0=    1 NMtDS0=    0 NMtDT0=    0
 Petite list used in FoFCou.
 Keep R1 ints in memory in canonical form, NReq=259727650.
 Requested convergence on RMS density matrix=1.00D-08 within  32 cycles.
 Requested convergence on MAX density matrix=1.00D-06.
 Requested convergence on             energy=1.00D-06.
 No special actions if energy rises.
 Integral accuracy reduced to 1.0D-05 until final iterations.
 Initial convergence to 1.0D-05 achieved.  Increase integral accuracy.
 SCF Done:  E(RB3LYP) =  -541.154983911     A.U. after   14 cycles
            NFock= 14  Conv=0.32D-08     -V/T= 2.0096
 QCSCF skips out because SCF is already converged.
 Calling FoFJK, ICntrl=      2127 FMM=F ISym2X=0 I1Cent= 0 IOpClX= 0 NMat=1 NMatS=1 NMatT=0.
 ***** Axes restored to original set *****
 -------------------------------------------------------------------
 Center     Atomic                   Forces (Hartrees/Bohr)
 Number     Number              X              Y              Z
 -------------------------------------------------------------------
      1        6           0.002687755   -0.001229895    0.000974203
      2        6          -0.000119165    0.003263711    0.008006690
      3        8           0.000705842   -0.002319755   -0.004880634
      4        6           0.000666638   -0.000701728    0.000472100
      5        6           0.001570508   -0.001171177    0.000556020
      6        6          -0.006415485   -0.002074212    0.003089648
      7        6           0.006725564    0.002136603    0.000668109
      8        6          -0.004219517    0.001610301    0.002999824
      9        6           0.001435307   -0.001044988    0.000219267
     10        6           0.001040900    0.000299757   -0.000269659
     11        6           0.004404967   -0.001363451   -0.006762582
     12        8          -0.002799305    0.000224738    0.001513084
[...]
   175    C    8  dx2y2  Ryd( 3d)     0.00052       2.46908
   176    C    8  dz2    Ryd( 3d)     0.00038       2.43511
 
   177    C    9  S      Cor( 1S)     0.99962      -9.91842
   178    C    9  S      Val( 2S)     0.53200      -0.14025
   179    C    9  S      Ryd( 4S)     0.00069       1.72783
   180    C    9  S      Ryd( 3S)     0.00024       1.34700
   181    C    9  S      Ryd( 5S)     0.00002      19.57380
   182    C    9  px     Val( 2p)     0.58495       0.01375
   183    C    9  px     Ryd( 3p)     0.00097       0.91661
   184    C    9  px     Ryd( 4p)     0.00028       1.23222
   185    C    9  px     Ryd( 5p)     0.00002       2.86005
   186    C    9  py     Val( 2p)     0.60558       0.01031
   187    C    9  py     Ryd( 3p)     0.00090       0.62431
   188    C    9  py     Ryd( 4p)     0.00017       0.92715
   189    C    9  py     Ryd( 5p)     0.00003       2.95277
   190    C    9  pz     Val( 2p)     0.55676       0.02099
   191    C    9  pz     Ryd( 3p)     0.00102       1.12652
   192    C    9  pz     Ryd( 4p)     0.00027       1.71722
   193    C    9  pz     Ryd( 5p)     0.00004       2.78517
   194    C    9  dxy    Ryd( 3d)     0.00028       2.12011
   195    C    9  dxz    Ryd( 3d)     0.00036       2.43504
   196    C    9  dyz    Ryd( 3d)     0.00042       2.19460
   197    C    9  dx2y2  Ryd( 3d)     0.00037       2.22767
   198    C    9  dz2    Ryd( 3d)     0.00031       2.23069
 
   199    C   10  S      Cor( 1S)     0.99962      -9.92636
   200    C   10  S      Val( 2S)     0.53433      -0.14186
   201    C   10  S      Ryd( 4S)     0.00020       1.84321
   202    C   10  S      Ryd( 3S)     0.00019       1.52621
   203    C   10  S      Ryd( 5S)     0.00001      20.29066
   204    C   10  px     Val( 2p)     0.58996       0.00682
   205    C   10  px     Ryd( 3p)     0.00108       0.85467
   206    C   10  px     Ryd( 4p)     0.00032       1.15249
   207    C   10  px     Ryd( 5p)     0.00001       2.80924
   208    C   10  py     Val( 2p)     0.57887       0.00808
   209    C   10  py     Ryd( 3p)     0.00089       0.87985
   210    C   10  py     Ryd( 4p)     0.00023       1.28421
   211    C   10  py     Ryd( 5p)     0.00002       2.76272
   212    C   10  pz     Val( 2p)     0.56887       0.00993
   213    C   10  pz     Ryd( 3p)     0.00091       0.95455
   214    C   10  pz     Ryd( 4p)     0.00025       1.41201
   215    C   10  pz     Ryd( 5p)     0.00004       2.69354
   216    C   10  dxy    Ryd( 3d)     0.00023       2.18993
   217    C   10  dxz    Ryd( 3d)     0.00044       2.33409
   218    C   10  dyz    Ryd( 3d)     0.00028       2.28112
   219    C   10  dx2y2  Ryd( 3d)     0.00049       2.23802
   220    C   10  dz2    Ryd( 3d)     0.00034       2.15933
 
   221    C   11  S      Cor( 1S)     0.99967     -10.00899
   222    C   11  S      Val( 2S)     0.45182      -0.06984
   223    C   11  S      Ryd( 3S)     0.00490       1.63300
   224    C   11  S      Ryd( 4S)     0.00026       2.13364
   225    C   11  S      Ryd( 5S)     0.00008      14.08057
   226    C   11  px     Val( 2p)     0.35233       0.00300
   227    C   11  px     Ryd( 3p)     0.00079       0.80581
   228    C   11  px     Ryd( 4p)     0.00036       1.04994
   229    C   11  px     Ryd( 5p)     0.00003       2.38091
   230    C   11  py     Val( 2p)     0.42477       0.09463
   231    C   11  py     Ryd( 3p)     0.00684       1.57339
   232    C   11  py     Ryd( 5p)     0.00055       3.63628
   233    C   11  py     Ryd( 4p)     0.00008       2.37885
   234    C   11  pz     Val( 2p)     0.52357       0.05683
   235    C   11  pz     Ryd( 4p)     0.00199       1.29465
   236    C   11  pz     Ryd( 3p)     0.00039       0.87417
   237    C   11  pz     Ryd( 5p)     0.00004       2.23508
   238    C   11  dxy    Ryd( 3d)     0.00144       1.84137
   239    C   11  dxz    Ryd( 3d)     0.00036       1.72826
   240    C   11  dyz    Ryd( 3d)     0.00100       2.66443
   241    C   11  dx2y2  Ryd( 3d)     0.00062       2.33944
   242    C   11  dz2    Ryd( 3d)     0.00132       2.34895
 
   243    O   12  S      Cor( 1S)     0.99988     -18.73660
   244    O   12  S      Val( 2S)     0.84980      -0.76931
   245    O   12  S      Ryd( 4S)     0.00080       1.78643
   246    O   12  S      Ryd( 3S)     0.00002       1.49401
   247    O   12  S      Ryd( 5S)     0.00000      49.74008
   248    O   12  px     Val( 2p)     0.68795      -0.12999
   249    O   12  px     Ryd( 3p)     0.00028       0.79127
   250    O   12  px     Ryd( 4p)     0.00001       0.95506
   251    O   12  px     Ryd( 5p)     0.00001       5.15863
   252    O   12  py     Val( 2p)     0.82457      -0.17772
   253    O   12  py     Ryd( 3p)     0.00092       0.92484
   254    O   12  py     Ryd( 4p)     0.00003       1.03165
   255    O   12  py     Ryd( 5p)     0.00003       5.42641
   256    O   12  pz     Val( 2p)     0.90753      -0.15595
   257    O   12  pz     Ryd( 3p)     0.00184       0.86874
   258    O   12  pz     Ryd( 4p)     0.00004       1.00850
   259    O   12  pz     Ryd( 5p)     0.00001       5.26237
   260    O   12  dxy    Ryd( 3d)     0.00062       3.17327
   261    O   12  dxz    Ryd( 3d)     0.00017       3.02681
   262    O   12  dyz    Ryd( 3d)     0.00064       3.55552
   263    O   12  dx2y2  Ryd( 3d)     0.00051       3.44276
   264    O   12  dz2    Ryd( 3d)     0.00034       3.21061
 
   265    H   13  S      Val( 1S)     0.39348       0.13863
   266    H   13  S      Ryd( 2S)     0.00030       0.43959
   267    H   13  S      Ryd( 4S)     0.00039       1.50270
   268    H   13  S      Ryd( 3S)     0.00003       1.13520
   269    H   13  px     Ryd( 2p)     0.00008       2.26857
   270    H   13  py     Ryd( 2p)     0.00011       2.14808
   271    H   13  pz     Ryd( 2p)     0.00006       2.09203
 
   272    H   14  S      Val( 1S)     0.39156       0.12770
   273    H   14  S      Ryd( 2S)     0.00026       0.42158
   274    H   14  S      Ryd( 4S)     0.00022       1.54777
   275    H   14  S      Ryd( 3S)     0.00003       1.28571
   276    H   14  px     Ryd( 2p)     0.00007       1.92865
   277    H   14  py     Ryd( 2p)     0.00012       2.39382
   278    H   14  pz     Ryd( 2p)     0.00009       2.23002
 
   279    H   15  S      Val( 1S)     0.38631       0.12711
   280    H   15  S      Ryd( 2S)     0.00197       0.32531
   281    H   15  S      Ryd( 3S)     0.00023       1.16298
   282    H   15  S      Ryd( 4S)     0.00003       1.47358
   283    H   15  px     Ryd( 2p)     0.00008       2.04876
   284    H   15  py     Ryd( 2p)     0.00009       2.07332
   285    H   15  pz     Ryd( 2p)     0.00010       2.42448
 
   286    H   16  S      Val( 1S)     0.39180       0.14537
   287    H   16  S      Ryd( 2S)     0.00085       0.49372
   288    H   16  S      Ryd( 4S)     0.00023       2.23779
   289    H   16  S      Ryd( 3S)     0.00001       0.76638
   290    H   16  px     Ryd( 2p)     0.00007       1.96531
   291    H   16  py     Ryd( 2p)     0.00013       2.75608
   292    H   16  pz     Ryd( 2p)     0.00007       2.03812
 
   293    H   17  S      Val( 1S)     0.37728       0.13148
   294    H   17  S      Ryd( 2S)     0.00455       0.41350
   295    H   17  S      Ryd( 4S)     0.00031       1.53664
   296    H   17  S      Ryd( 3S)     0.00002       1.24337
   297    H   17  px     Ryd( 2p)     0.00008       2.14721
   298    H   17  py     Ryd( 2p)     0.00008       2.03888
   299    H   17  pz     Ryd( 2p)     0.00014       2.64160
 
   300    H   18  S      Val( 1S)     0.39651       0.14894
   301    H   18  S      Ryd( 2S)     0.00085       0.58087
   302    H   18  S      Ryd( 4S)     0.00043       1.76714
   303    H   18  S      Ryd( 3S)     0.00003       1.07415
   304    H   18  px     Ryd( 2p)     0.00009       2.17292
   305    H   18  py     Ryd( 2p)     0.00008       2.08471
   306    H   18  pz     Ryd( 2p)     0.00014       2.51886
 
   307    H   19  S      Val( 1S)     0.39029       0.15988
   308    H   19  S      Ryd( 2S)     0.00039       0.34398
   309    H   19  S      Ryd( 4S)     0.00045       1.81750
   310    H   19  S      Ryd( 3S)     0.00003       1.26220
   311    H   19  px     Ryd( 2p)     0.00009       2.05815
   312    H   19  py     Ryd( 2p)     0.00013       2.70500
   313    H   19  pz     Ryd( 2p)     0.00008       2.07795
 
   314    H   20  S      Val( 1S)     0.38536       0.17406
   315    H   20  S      Ryd( 2S)     0.00079       0.54489
   316    H   20  S      Ryd( 4S)     0.00014       2.27284
   317    H   20  S      Ryd( 3S)     0.00002       0.76358
   318    H   20  px     Ryd( 2p)     0.00010       2.28052
   319    H   20  py     Ryd( 2p)     0.00012       2.22068
   320    H   20  pz     Ryd( 2p)     0.00014       2.43989
 
   321    H   21  S      Val( 1S)     0.39206       0.15262
   322    H   21  S      Ryd( 3S)     0.00060       0.75562
   323    H   21  S      Ryd( 2S)     0.00043       0.65402
   324    H   21  S      Ryd( 4S)     0.00012       2.56446
   325    H   21  px     Ryd( 2p)     0.00010       1.84881
   326    H   21  py     Ryd( 2p)     0.00005       2.14790
   327    H   21  pz     Ryd( 2p)     0.00016       2.86180
 
   328    H   22  S      Val( 1S)     0.39366       0.14207
   329    H   22  S      Ryd( 2S)     0.00083       0.63070
   330    H   22  S      Ryd( 4S)     0.00034       1.51408
   331    H   22  S      Ryd( 3S)     0.00004       0.92572
   332    H   22  px     Ryd( 2p)     0.00007       2.08237
   333    H   22  py     Ryd( 2p)     0.00010       2.17972
   334    H   22  pz     Ryd( 2p)     0.00012       2.37878
 
   335    H   23  S      Val( 1S)     0.39912       0.13412
   336    H   23  S      Ryd( 2S)     0.00033       0.38407
   337    H   23  S      Ryd( 4S)     0.00034       1.50511
   338    H   23  S      Ryd( 3S)     0.00001       1.30072
   339    H   23  px     Ryd( 2p)     0.00007       1.96641
   340    H   23  py     Ryd( 2p)     0.00012       2.63608
   341    H   23  pz     Ryd( 2p)     0.00008       2.04382
 
   342    H   24  S      Val( 1S)     0.39671       0.13578
   343    H   24  S      Ryd( 2S)     0.00063       0.40721
   344    H   24  S      Ryd( 4S)     0.00032       1.48634
   345    H   24  S      Ryd( 3S)     0.00001       1.22039
   346    H   24  px     Ryd( 2p)     0.00012       2.68895
   347    H   24  py     Ryd( 2p)     0.00009       2.08566
   348    H   24  pz     Ryd( 2p)     0.00007       1.90687
 
   349    H   25  S      Val( 1S)     0.40059       0.12773
   350    H   25  S      Ryd( 2S)     0.00012       0.39595
   351    H   25  S      Ryd( 4S)     0.00034       1.44501
   352    H   25  S      Ryd( 3S)     0.00002       1.37831
   353    H   25  px     Ryd( 2p)     0.00007       1.95659
   354    H   25  py     Ryd( 2p)     0.00013       2.69084
   355    H   25  pz     Ryd( 2p)     0.00008       1.95709
 
   356    H   26  S      Val( 1S)     0.40017       0.12805
   357    H   26  S      Ryd( 2S)     0.00013       0.64960
   358    H   26  S      Ryd( 3S)     0.00027       1.29940
   359    H   26  S      Ryd( 4S)     0.00003       1.33366
   360    H   26  px     Ryd( 2p)     0.00008       2.15096
   361    H   26  py     Ryd( 2p)     0.00007       1.89300
   362    H   26  pz     Ryd( 2p)     0.00012       2.53384
 
   363    H   27  S      Val( 1S)     0.40017       0.12813
   364    H   27  S      Ryd( 2S)     0.00019       0.42743
   365    H   27  S      Ryd( 4S)     0.00036       1.34290
   366    H   27  S      Ryd( 3S)     0.00002       1.30244
   367    H   27  px     Ryd( 2p)     0.00013       2.65834
   368    H   27  py     Ryd( 2p)     0.00009       2.01269
   369    H   27  pz     Ryd( 2p)     0.00007       1.95276
 
   370    H   28  S      Val( 1S)     0.44880       0.09467
   371    H   28  S      Ryd( 2S)     0.00078       0.47170
   372    H   28  S      Ryd( 3S)     0.00121       1.12781
   373    H   28  S      Ryd( 4S)     0.00009       2.45980
   374    H   28  px     Ryd( 2p)     0.00003       1.75325
   375    H   28  py     Ryd( 2p)     0.00005       2.15799
   376    H   28  pz     Ryd( 2p)     0.00039       2.76656

 WARNING:  Population inversion found on atom  C    1
           Population inversion found on atom  C    2
           Population inversion found on atom  O    3
           Population inversion found on atom  C    4
           Population inversion found on atom  C    5
           Population inversion found on atom  C    6
           Population inversion found on atom  C    7
           Population inversion found on atom  C    8
           Population inversion found on atom  C    9
           Population inversion found on atom  C   10
           Population inversion found on atom  C   11
           Population inversion found on atom  O   12
           Population inversion found on atom  H   13
           Population inversion found on atom  H   14
           Population inversion found on atom  H   16
           Population inversion found on atom  H   17
           Population inversion found on atom  H   18
           Population inversion found on atom  H   19
           Population inversion found on atom  H   20
           Population inversion found on atom  H   21
           Population inversion found on atom  H   22
           Population inversion found on atom  H   23
           Population inversion found on atom  H   24
           Population inversion found on atom  H   25
           Population inversion found on atom  H   26
           Population inversion found on atom  H   27
           Population inversion found on atom  H   28


 Summary of Natural Population Analysis:                  
                                                          
                                       Natural Population 
                Natural  -----------------------------------------------
    Atom  No    Charge         Core      Valence    Rydberg      Total
 -----------------------------------------------------------------------
      C    1   -0.33441      0.99962     2.32964    0.00515     3.33441
      C    2    0.31272      0.99969     1.66695    0.02064     2.68728
      O    3   -0.28868      0.99987     3.28267    0.00614     4.28868
      C    4   -0.23757      0.99958     2.22941    0.00859     3.23757
      C    5   -0.19619      0.99961     2.18529    0.01129     3.19619
      C    6   -0.08899      0.99952     2.07955    0.00992     3.08899
      C    7   -0.15912      0.99952     2.14858    0.01101     3.15912
      C    8   -0.02684      0.99953     2.01702    0.01030     3.02684
      C    9   -0.28529      0.99962     2.27929    0.00638     3.28529
      C   10   -0.27756      0.99962     2.27203    0.00591     3.27756
      C   11    0.22679      0.99967     1.75249    0.02105     2.77321
      O   12   -0.27602      0.99988     3.26985    0.00629     4.27602
      H   13    0.10555      0.00000     0.39348    0.00097     0.39445
      H   14    0.10765      0.00000     0.39156    0.00080     0.39235
      H   15    0.11118      0.00000     0.38631    0.00251     0.38882
      H   16    0.10683      0.00000     0.39180    0.00137     0.39317
      H   17    0.11754      0.00000     0.37728    0.00518     0.38246
      H   18    0.10187      0.00000     0.39651    0.00162     0.39813
      H   19    0.10854      0.00000     0.39029    0.00117     0.39146
      H   20    0.11333      0.00000     0.38536    0.00131     0.38667
      H   21    0.10648      0.00000     0.39206    0.00146     0.39352
      H   22    0.10484      0.00000     0.39366    0.00149     0.39516
      H   23    0.09992      0.00000     0.39912    0.00096     0.40008
      H   24    0.10204      0.00000     0.39671    0.00125     0.39796
      H   25    0.09866      0.00000     0.40059    0.00076     0.40134
      H   26    0.09912      0.00000     0.40017    0.00070     0.40088
      H   27    0.09898      0.00000     0.40017    0.00085     0.40102
      H   28    0.04865      0.00000     0.44880    0.00255     0.45135
 =======================================================================
   * Total *   -0.00000     11.99576    33.85665    0.14760    46.00000

                                 Natural Population      
 --------------------------------------------------------
   Core                      11.99576 ( 99.9646% of  12)
   Valence                   33.85665 ( 99.5784% of  34)
   Natural Minimal Basis     45.85240 ( 99.6791% of  46)
   Natural Rydberg Basis      0.14760 (  0.3209% of  46)
 --------------------------------------------------------

    Atom  No          Natural Electron Configuration
 ----------------------------------------------------------------------------
      C    1      [core]2S( 0.56)2p( 1.77)
      C    2      [core]2S( 0.43)2p( 1.24)3p( 0.01)
      O    3      [core]2S( 0.85)2p( 2.44)
      C    4      [core]2S( 0.52)2p( 1.71)
      C    5      [core]2S( 0.50)2p( 1.68)3p( 0.01)
      C    6      [core]2S( 0.46)2p( 1.62)3p( 0.01)
      C    7      [core]2S( 0.48)2p( 1.67)3p( 0.01)
      C    8      [core]2S( 0.44)2p( 1.58)
      C    9      [core]2S( 0.53)2p( 1.75)
      C   10      [core]2S( 0.53)2p( 1.74)
      C   11      [core]2S( 0.45)2p( 1.30)3p( 0.01)
      O   12      [core]2S( 0.85)2p( 2.42)
      H   13            1S( 0.39)
      H   14            1S( 0.39)
      H   15            1S( 0.39)
      H   16            1S( 0.39)
      H   17            1S( 0.38)
      H   18            1S( 0.40)
      H   19            1S( 0.39)
      H   20            1S( 0.39)
      H   21            1S( 0.39)
      H   22            1S( 0.39)
      H   23            1S( 0.40)
      H   24            1S( 0.40)
      H   25            1S( 0.40)
      H   26            1S( 0.40)
      H   27            1S( 0.40)
      H   28            1S( 0.45)


 NBO analysis skipped by request.
 1\1\GINC-NODE369\SP\UB3LYP\6-311++G(d,p)\C10H16O2(1-,2)\VSC10255\09-De
 c-2020\0\\# B3LYP/6-311++G(d,p) empiricaldispersion=gd3bj scf=xqc pop=
 npa geom=check\\CID_12835792_JID_2680_Energie_anion\\-1,2\C,0,1.132626
 6343,0.5715128039,1.3358978582\C,0,0.5203987636,-0.6572270877,0.691795
 2399\O,0,-0.4825718849,-0.5892254929,0.0048615975\C,0,1.2298594784,-1.
 9798131274,0.9549428983\C,0,0.7222094395,-3.1403724899,0.0943653218\C,
 0,1.0087515783,-2.9406821394,-1.3826206335\C,0,2.4403340272,-3.0083127
 602,-1.951355428\C,0,1.3595349537,-4.0321549979,-2.3428841086\C,0,1.47
 70253234,-5.4784929914,-1.8929133518\C,0,0.8354176666,-3.8999454224,-3
 .7623232062\C,0,3.5804619889,-3.3596910131,-1.085991557\O,0,4.67681978
 9,-2.8366598433,-1.1666487154\H,0,0.4604387061,1.4247213301,1.22728542
 35\H,0,2.0886003732,0.8006864528,0.8475467902\H,0,1.3507552036,0.39596
 19266,2.3958296216\H,0,2.3102958727,-1.8319724986,0.8216625393\H,0,1.0
 962320728,-2.2071041503,2.0233614043\H,0,1.1622773156,-4.0701614579,0.
 4658346106\H,0,-0.3623015596,-3.229993469,0.2219120805\H,0,0.430284541
 3,-2.1238002048,-1.8055912665\H,0,2.7007550491,-2.264706222,-2.7002751
 965\H,0,1.8322498109,-5.5925081874,-0.8666932106\H,0,0.4973422017,-5.9
 670648171,-1.9587510741\H,0,2.1672183612,-6.0264772068,-2.5448363001\H
 ,0,-0.1635357941,-4.3460434936,-3.8449348574\H,0,0.7608432296,-2.85082
 83265,-4.0666791752\H,0,1.4940129045,-4.4137107837,-4.4728877525\H,0,3
 .3956639536,-4.1428043301,-0.3193895523\\Version=ES64L-G16RevA.03\Stat
 e=2-A\HF=-541.3107401\S2=0.750535\S2-1=0.\S2A=0.75\RMSD=2.741e-11\Dipo
 le=-0.4117336,0.4369587,-2.0167403\Quadrupole=1.555155,0.1913162,-1.74
 64712,6.407676,5.5092711,-10.108148\PG=C01 [X(C10H16O2)]\\@


 Luck is a matter of preparation meeting opportunity.
                                    -- Oprah Winfrey
 Job cpu time:       0 days  0 hours 27 minutes 37.3 seconds.
 Elapsed time:       0 days  0 hours  7 minutes  1.1 seconds.
 File lengths (MBytes):  RWF=    188 Int=      0 D2E=      0 Chk=     20 Scr=      8
 Normal termination of Gaussian 16 at Wed Dec  9 18:59:29 2020.
