 Entering Gaussian System, Link 0=g16
 Initial command:
 /apps/brussel/CO7/skylake/software/Gaussian/G16.A.03-intel-2017b/g16/l1.exe "/scratch/brussel/102/vsc10255/Gau-40379.inp" -scrdir="/scratch/brussel/102/vsc10255/"
 Entering Link 1 = /apps/brussel/CO7/skylake/software/Gaussian/G16.A.03-intel-2017b/g16/l1.exe.bin PID=     40381.
  
 Copyright (c) 1988,1990,1992,1993,1995,1998,2003,2009,2016,
            Gaussian, Inc.  All Rights Reserved.
  
 This is part of the Gaussian(R) 16 program.  It is based on
 the Gaussian(R) 09 system (copyright 2009, Gaussian, Inc.),
 the Gaussian(R) 03 system (copyright 2003, Gaussian, Inc.),
 the Gaussian(R) 98 system (copyright 1998, Gaussian, Inc.),
 the Gaussian(R) 94 system (copyright 1995, Gaussian, Inc.),
 the Gaussian 92(TM) system (copyright 1992, Gaussian, Inc.),
 the Gaussian 90(TM) system (copyright 1990, Gaussian, Inc.),
 the Gaussian 88(TM) system (copyright 1988, Gaussian, Inc.),
 the Gaussian 86(TM) system (copyright 1986, Carnegie Mellon
 University), and the Gaussian 82(TM) system (copyright 1983,
 Carnegie Mellon University). Gaussian is a federally registered
 trademark of Gaussian, Inc.
  
 This software contains proprietary and confidential information,
 including trade secrets, belonging to Gaussian, Inc.
  
 This software is provided under written license and may be
 used, copied, transmitted, or stored only in accord with that
 written license.
  
 The following legend is applicable only to US Government
 contracts under FAR:
  
                    RESTRICTED RIGHTS LEGEND
  
 Use, reproduction and disclosure by the US Government is
 subject to restrictions as set forth in subparagraphs (a)
 and (c) of the Commercial Computer Software - Restricted
 Rights clause in FAR 52.227-19.
  
 Gaussian, Inc.
 340 Quinnipiac St., Bldg. 40, Wallingford CT 06492
  
  
 ---------------------------------------------------------------
 Warning -- This program may not be used in any manner that
 competes with the business of Gaussian, Inc. or will provide
 assistance to any competitor of Gaussian, Inc.  The licensee
 of this program is prohibited from giving any competitor of
 Gaussian, Inc. access to this program.  By using this program,
 the user acknowledges that Gaussian, Inc. is engaged in the
 business of creating and licensing software in the field of
 computational chemistry and represents and warrants to the
 licensee that it is not a competitor of Gaussian, Inc. and that
 it will not use this program in any manner prohibited above.
 ---------------------------------------------------------------
  

 Cite this work as:
 Gaussian 16, Revision A.03,
 M. J. Frisch, G. W. Trucks, H. B. Schlegel, G. E. Scuseria, 
 M. A. Robb, J. R. Cheeseman, G. Scalmani, V. Barone, 
 G. A. Petersson, H. Nakatsuji, X. Li, M. Caricato, A. V. Marenich, 
 J. Bloino, B. G. Janesko, R. Gomperts, B. Mennucci, H. P. Hratchian, 
 J. V. Ortiz, A. F. Izmaylov, J. L. Sonnenberg, D. Williams-Young, 
 F. Ding, F. Lipparini, F. Egidi, J. Goings, B. Peng, A. Petrone, 
 T. Henderson, D. Ranasinghe, V. G. Zakrzewski, J. Gao, N. Rega, 
 G. Zheng, W. Liang, M. Hada, M. Ehara, K. Toyota, R. Fukuda, 
 J. Hasegawa, M. Ishida, T. Nakajima, Y. Honda, O. Kitao, H. Nakai, 
 T. Vreven, K. Throssell, J. A. Montgomery, Jr., J. E. Peralta, 
 F. Ogliaro, M. J. Bearpark, J. J. Heyd, E. N. Brothers, K. N. Kudin, 
 V. N. Staroverov, T. A. Keith, R. Kobayashi, J. Normand, 
 K. Raghavachari, A. P. Rendell, J. C. Burant, S. S. Iyengar, 
 J. Tomasi, M. Cossi, J. M. Millam, M. Klene, C. Adamo, R. Cammi, 
 J. W. Ochterski, R. L. Martin, K. Morokuma, O. Farkas, 
 J. B. Foresman, and D. J. Fox, Gaussian, Inc., Wallingford CT, 2016.
 
 ******************************************
 Gaussian 16:  ES64L-G16RevA.03 25-Dec-2016
                23-Feb-2021 
 ******************************************
 %chk=JID_10045.chk
 %mem=8GB
 %nprocshared=4
 Will use up to    4 processors via shared memory.
 ----------------------------------------------------------------------
 # opt=(cartesian,calcfc) freq B3LYP/6-31G(d) empiricaldispersion=gd3bj
  scf=xqc
 ----------------------------------------------------------------------
 1/10=4,18=10,26=3,38=1/1,3;
 2/12=2,17=6,18=5,29=2,40=1/2;
 3/5=1,6=6,7=1,11=2,25=1,30=1,71=2,74=-5,124=41,140=1/1,2,3;
 4//1;
 5/5=2,8=3,13=1,38=5/2,8;
 8/6=4,10=90,11=11/1;
 11/6=1,8=1,9=11,15=111,16=1/1,2,10;
 10/6=1,13=1/2;
 6/7=2,8=2,9=2,10=2,28=1/1;
 7/7=1,10=1,18=20,25=1/1,2,3,16;
 1/10=4,18=10,26=3/3(2);
 2/29=1/2;
 99/12=1/99;
 2/29=1/2;
 3/5=1,6=6,7=1,11=2,25=1,30=1,71=1,74=-5,124=41/1,2,3;
 4/5=5,16=3,69=1/1;
 5/5=2,8=3,13=1,38=5/2,8;
 7/7=1/1,2,3,16;
 1/18=10,26=3/3(-5);
 2/29=1/2;
 6/7=2,8=2,9=2,10=2,19=2,28=1/1;
 99/9=1,12=1/99;
 -------------------------------
 CID_65783649_JID_10045_neutraal
 -------------------------------
 Symbolic Z-matrix:
 Charge =  0 Multiplicity = 1
 C                     1.05467   0.0772   -0.03242 
 C                     0.69997  -0.86143   1.11583 
 C                     1.27258  -0.42984   2.47111 
 N                     0.80603   0.90748   2.81045 
 C                     1.20824   1.37474   4.1373 
 C                     2.66289   1.84875   4.33277 
 C                     3.44835   2.24935   3.08363 
 S                     2.71455   3.17967   5.57833 
 O                     1.58229   3.06166   6.47195 
 O                     4.05917   3.21488   6.11976 
 N                     2.50626   4.61872   4.68665 
 C                     2.77117   5.84458   5.5156 
 C                     2.74079   7.12298   4.65071 
 N                     1.5713    7.29951   3.77588 
 C                     1.22919   6.04826   3.08919 
 C                     1.20799   4.78076   3.96334 
 C                     0.427     8.05887   4.29731 
 C                    -0.16306   7.56288   5.62043 
 C                     0.75828   9.56558   4.42273 
 C                     1.25703   10.18958   3.12483 
 H                     0.55505   1.04576   0.0628 
 H                     0.73458  -0.36154  -0.98323 
 H                     2.1353    0.24372  -0.0839 
 H                    -0.39181  -0.94511   1.18299 
 H                     1.07852  -1.86385   0.88273 
 H                     0.94023  -1.14829   3.22947 
 H                     2.36572  -0.47195   2.43449 
 H                     1.08558   1.57557   2.09528 
 H                     0.50446   2.17512   4.38144 
 H                     0.98594   0.6007    4.88438 
 H                     3.21462   1.0218    4.80066 
 H                     2.9369    3.01072   2.49003 
 H                     4.43164   2.64945   3.35498 
 H                     3.62594   1.38743   2.43446 
 H                     2.03221   5.90617   6.32092 
 H                     3.76552   5.77169   5.96953 
 H                     3.61957   7.0916    3.99223 
 H                     2.89751   7.99635   5.29241 
 H                     1.98565   5.89868   2.30623 
 H                     0.27767   6.1382    2.55135 
 H                     1.05278   3.9439    3.28123 
 H                     0.3773    4.79779   4.67252 
 H                    -0.37853   8.00219   3.55176 
 H                     0.54818   7.65435   6.44638 
 H                    -1.04576   8.15617   5.88605 
 H                    -0.49603   6.52528   5.55489 
 H                    -0.15045   10.10137   4.72635 
 H                     1.496     9.74053   5.21415 
 H                     0.54674   10.02136   2.30915 
 H                     1.37745   11.27026   3.25136 
 H                     2.22796   9.78037   2.82944 
 

 GradGradGradGradGradGradGradGradGradGradGradGradGradGradGradGradGradGrad
 Berny optimization.
 Initialization pass.
 No Z-matrix variables, so optimization will use Cartesian coordinates.
 Trust Radius=3.00D-01 FncErr=1.00D-07 GrdErr=1.00D-06 EigMax=2.50D+02 EigMin=1.00D-04
 Number of steps in this run=    163 maximum allowed number of steps=    306.
 GradGradGradGradGradGradGradGradGradGradGradGradGradGradGradGradGradGrad

 Stoichiometry    C14H31N3O2S
 Framework group  C1[X(C14H31N3O2S)]
 Deg. of freedom   147
 Full point group                 C1      NOp   1
 Largest Abelian subgroup         C1      NOp   1
 Largest concise Abelian subgroup C1      NOp   1
                         Standard orientation:                         
 ---------------------------------------------------------------------
 Center     Atomic      Atomic             Coordinates (Angstroms)
 Number     Number       Type             X           Y           Z
 ---------------------------------------------------------------------
      1          6           0        4.958446   -2.995793   -0.612346
      2          6           0        5.579839   -1.995914    0.356896
      3          6           0        4.860454   -0.642563    0.400048
      4          7           0        3.462823   -0.828229    0.765288
      5          6           0        2.708651    0.413234    0.940302
      6          6           0        2.261671    1.178275   -0.322164
      7          6           0        2.204011    0.398690   -1.636204
      8         16           0        0.674732    2.018190   -0.003412
      9          8           0        0.529071    2.273775    1.413611
     10          8           0        0.566178    3.112950   -0.947926
     11          7           0       -0.516563    0.876572   -0.435693
     12          6           0       -1.893196    1.479274   -0.476911
     13          6           0       -2.927760    0.475686   -1.029861
     14          7           0       -2.937695   -0.863600   -0.421245
     15          6           0       -1.573621   -1.375608   -0.244162
     16          6           0       -0.553961   -0.390545    0.356744
     17          6           0       -3.845972   -1.102242    0.708367
     18          6           0       -3.705460   -0.148308    1.897942
     19          6           0       -5.324066   -1.127052    0.249812
     20          6           0       -5.598536   -2.127068   -0.867017
     21          1           0        3.975587   -3.336206   -0.273374
     22          1           0        5.598373   -3.880535   -0.694295
     23          1           0        4.853504   -2.560951   -1.611366
     24          1           0        5.600210   -2.438454    1.360509
     25          1           0        6.623563   -1.824823    0.067329
     26          1           0        5.362420   -0.009664    1.141132
     27          1           0        4.954864   -0.148961   -0.572328
     28          1           0        2.997217   -1.439290    0.097622
     29          1           0        1.844958    0.136616    1.551069
     30          1           0        3.271753    1.099157    1.587689
     31          1           0        2.974601    2.000361   -0.474077
     32          1           0        1.586419   -0.499851   -1.566701
     33          1           0        1.791265    1.020243   -2.438627
     34          1           0        3.202717    0.089974   -1.957369
     35          1           0       -2.175850    1.810453    0.527491
     36          1           0       -1.890307    2.353890   -1.136560
     37          1           0       -2.703805    0.331103   -2.095588
     38          1           0       -3.922086    0.933892   -1.008000
     39          1           0       -1.210239   -1.662385   -1.240828
     40          1           0       -1.571225   -2.305396    0.337422
     41          1           0        0.414674   -0.889797    0.309915
     42          1           0       -0.774151   -0.176865    1.405137
     43          1           0       -3.645674   -2.113439    1.089548
     44          1           0       -3.962602    0.880750    1.630844
     45          1           0       -4.380723   -0.451307    2.706593
     46          1           0       -2.696845   -0.162891    2.315388
     47          1           0       -5.953704   -1.398645    1.107040
     48          1           0       -5.652849   -0.131195   -0.068549
     49          1           0       -5.269355   -3.132106   -0.584737
     50          1           0       -6.672242   -2.168838   -1.076279
     51          1           0       -5.091114   -1.843289   -1.794058
 ---------------------------------------------------------------------
 Rotational constants (GHZ):           0.4779478           0.1457155           0.1252844
 Standard basis: 6-31G(d) (6D, 7F)
 There are   366 symmetry adapted cartesian basis functions of A   symmetry.
 There are   366 symmetry adapted basis functions of A   symmetry.
   366 basis functions,   708 primitive gaussians,   366 cartesian basis functions
    84 alpha electrons       84 beta electrons
       nuclear repulsion energy      1948.8275670925 Hartrees.
 NAtoms=   51 NActive=   51 NUniq=   51 SFac= 1.00D+00 NAtFMM=   60 NAOKFM=F Big=F
 Integral buffers will be    131072 words long.
 Raffenetti 2 integral format.
 Two-electron integral symmetry is turned on.
 Nuclear repulsion after empirical dispersion term =     1948.7249764179 Hartrees.
 One-electron integrals computed using PRISM.
 NBasis=   366 RedAO= T EigKep=  2.43D-03  NBF=   366
 NBsUse=   366 1.00D-06 EigRej= -1.00D+00 NBFU=   366
 ExpMin= 1.17D-01 ExpMax= 2.19D+04 ExpMxC= 3.30D+03 IAcc=3 IRadAn=         5 AccDes= 0.00D+00
 Harris functional with IExCor=  402 and IRadAn=       5 diagonalized for initial guess.
 HarFok:  IExCor=  402 AccDes= 0.00D+00 IRadAn=         5 IDoV= 1 UseB2=F ITyADJ=14
 ICtDFT=  3500011 ScaDFX=  1.000000  1.000000  1.000000  1.000000
 FoFCou: FMM=F IPFlag=           0 FMFlag=      100000 FMFlg1=           0
         NFxFlg=           0 DoJE=T BraDBF=F KetDBF=T FulRan=T
         wScrn=  0.000000 ICntrl=       500 IOpCl=  0 I1Cent=   200000004 NGrid=           0
         NMat0=    1 NMatS0=      1 NMatT0=    0 NMatD0=    1 NMtDS0=    0 NMtDT0=    0
 Petite list used in FoFCou.
 Requested convergence on RMS density matrix=1.00D-08 within  32 cycles.
 Requested convergence on MAX density matrix=1.00D-06.
 Requested convergence on             energy=1.00D-06.
 No special actions if energy rises.
 Integral accuracy reduced to 1.0D-05 until final iterations.
 Initial convergence to 1.0D-05 achieved.  Increase integral accuracy.
 SCF Done:  E(RB3LYP) =  -1265.05217521     A.U. after   14 cycles
            NFock= 14  Conv=0.45D-08     -V/T= 2.0078
 QCSCF skips out because SCF is already converged.
 DoSCS=F DFT=T ScalE2(SS,OS)=  1.000000  1.000000
 Range of M.O.s used for correlation:     1   366
 NBasis=   366 NAE=    84 NBE=    84 NFC=     0 NFV=     0
 NROrb=    366 NOA=    84 NOB=    84 NVA=   282 NVB=   282
 Symmetrizing basis deriv contribution to polar:
 IMax=3 JMax=2 DiffMx= 0.00D+00
 G2DrvN: will do    52 centers at a time, making    1 passes.
 Calling FoFCou, ICntrl=  3107 FMM=F I1Cent=   0 AccDes= 0.00D+00.
 End of G2Drv F.D. properties file   721 does not exist.
 End of G2Drv F.D. properties file   722 does not exist.
 End of G2Drv F.D. properties file   788 does not exist.
          IDoAtm=11111111111111111111111111111111111111111111111111
          IDoAtm=1
          Differentiating once with respect to nuclear coordinates.
 CalDSu exits because no D1Ps are significant.
          There are   156 degrees of freedom in the 1st order CPHF.  IDoFFX=6 NUNeed=     0.
    150 vectors produced by pass  0 Test12= 2.37D-14 1.00D-09 XBig12= 3.23D-01 9.24D-02.
 AX will form   150 AO Fock derivatives at one time.
    150 vectors produced by pass  1 Test12= 2.37D-14 1.00D-09 XBig12= 7.04D-02 2.23D-02.
    150 vectors produced by pass  2 Test12= 2.37D-14 1.00D-09 XBig12= 4.95D-04 2.37D-03.
    150 vectors produced by pass  3 Test12= 2.37D-14 1.00D-09 XBig12= 1.32D-06 1.32D-04.
    150 vectors produced by pass  4 Test12= 2.37D-14 1.00D-09 XBig12= 1.26D-09 2.98D-06.
     71 vectors produced by pass  5 Test12= 2.37D-14 1.00D-09 XBig12= 8.98D-13 6.41D-08.
      3 vectors produced by pass  6 Test12= 2.37D-14 1.00D-09 XBig12= 6.22D-16 2.61D-09.
 InvSVY:  IOpt=1 It=  1 EMax= 8.88D-16
 Solved reduced A of dimension   824 with   156 vectors.
 End of Minotr F.D. properties file   721 does not exist.
 End of Minotr F.D. properties file   722 does not exist.
 End of Minotr F.D. properties file   788 does not exist.

 **********************************************************************

            Population analysis using the SCF density.

 **********************************************************************

 Orbital symmetries:
       Occupied  (A) (A) (A) (A) (A) (A) (A) (A) (A) (A) (A) (A)
                 (A) (A) (A) (A) (A) (A) (A) (A) (A) (A) (A) (A)
                 (A) (A) (A) (A) (A) (A) (A) (A) (A) (A) (A) (A)
                 (A) (A) (A) (A) (A) (A) (A) (A) (A) (A) (A) (A)
                 (A) (A) (A) (A) (A) (A) (A) (A) (A) (A) (A) (A)
                 (A) (A) (A) (A) (A) (A) (A) (A) (A) (A) (A) (A)
                 (A) (A) (A) (A) (A) (A) (A) (A) (A) (A) (A) (A)
       Virtual   (A) (A) (A) (A) (A) (A) (A) (A) (A) (A) (A) (A)
                 (A) (A) (A) (A) (A) (A) (A) (A) (A) (A) (A) (A)
                 (A) (A) (A) (A) (A) (A) (A) (A) (A) (A) (A) (A)
                 (A) (A) (A) (A) (A) (A) (A) (A) (A) (A) (A) (A)
                 (A) (A) (A) (A) (A) (A) (A) (A) (A) (A) (A) (A)
                 (A) (A) (A) (A) (A) (A) (A) (A) (A) (A) (A) (A)
                 (A) (A) (A) (A) (A) (A) (A) (A) (A) (A) (A) (A)
                 (A) (A) (A) (A) (A) (A) (A) (A) (A) (A) (A) (A)
                 (A) (A) (A) (A) (A) (A) (A) (A) (A) (A) (A) (A)
                 (A) (A) (A) (A) (A) (A) (A) (A) (A) (A) (A) (A)
                 (A) (A) (A) (A) (A) (A) (A) (A) (A) (A) (A) (A)
                 (A) (A) (A) (A) (A) (A) (A) (A) (A) (A) (A) (A)
                 (A) (A) (A) (A) (A) (A) (A) (A) (A) (A) (A) (A)
                 (A) (A) (A) (A) (A) (A) (A) (A) (A) (A) (A) (A)
                 (A) (A) (A) (A) (A) (A) (A) (A) (A) (A) (A) (A)
                 (A) (A) (A) (A) (A) (A) (A) (A) (A) (A) (A) (A)
                 (A) (A) (A) (A) (A) (A) (A) (A) (A) (A) (A) (A)
                 (A) (A) (A) (A) (A) (A) (A) (A) (A) (A) (A) (A)
                 (A) (A) (A) (A) (A) (A) (A) (A) (A) (A) (A) (A)
                 (A) (A) (A) (A) (A) (A) (A) (A) (A) (A) (A) (A)
                 (A) (A) (A) (A) (A) (A) (A) (A) (A) (A) (A) (A)
                 (A) (A) (A) (A) (A) (A) (A) (A) (A) (A) (A) (A)
                 (A) (A) (A) (A) (A) (A) (A) (A) (A) (A) (A) (A)
                 (A) (A) (A) (A) (A) (A)
 The electronic state is 1-A.
 Alpha  occ. eigenvalues --  -89.09672 -19.13242 -19.13176 -14.36002 -14.32735
 Alpha  occ. eigenvalues --  -14.32457 -10.23196 -10.22710 -10.22100 -10.22090
 Alpha  occ. eigenvalues --  -10.21846 -10.21835 -10.21626 -10.21007 -10.19918
 Alpha  occ. eigenvalues --  -10.18495 -10.18178 -10.17919 -10.17297 -10.16758
 Alpha  occ. eigenvalues --   -8.12424  -6.08902  -6.08820  -6.08703  -1.11041
 Alpha  occ. eigenvalues --   -0.99821  -0.94223  -0.91349  -0.90367  -0.81499
 Alpha  occ. eigenvalues --   -0.78901  -0.77414  -0.77070  -0.72794  -0.70997
 Alpha  occ. eigenvalues --   -0.70418  -0.67641  -0.65361  -0.64316  -0.62404
 Alpha  occ. eigenvalues --   -0.60126  -0.58742  -0.57704  -0.54466  -0.52044
 Alpha  occ. eigenvalues --   -0.50846  -0.49448  -0.48713  -0.47415  -0.47174
 Alpha  occ. eigenvalues --   -0.46660  -0.45624  -0.45499  -0.44450  -0.43883
 Alpha  occ. eigenvalues --   -0.43302  -0.42689  -0.42284  -0.41678  -0.41269
 Alpha  occ. eigenvalues --   -0.40997  -0.40333  -0.39835  -0.39622  -0.39448
 Alpha  occ. eigenvalues --   -0.37408  -0.37222  -0.36793  -0.36499  -0.35643
 Alpha  occ. eigenvalues --   -0.35089  -0.34435  -0.34247  -0.33860  -0.33440
 Alpha  occ. eigenvalues --   -0.33078  -0.32797  -0.31555  -0.31193  -0.29658
 Alpha  occ. eigenvalues --   -0.29425  -0.24793  -0.22540  -0.20680
 Alpha virt. eigenvalues --    0.03691   0.06509   0.06930   0.08159   0.08592
 Alpha virt. eigenvalues --    0.09102   0.09388   0.10186   0.10402   0.11264
 Alpha virt. eigenvalues --    0.11710   0.12284   0.12808   0.13307   0.13822
 Alpha virt. eigenvalues --    0.14491   0.14838   0.14993   0.15376   0.15553
 Alpha virt. eigenvalues --    0.15748   0.16421   0.16829   0.16865   0.17441
 Alpha virt. eigenvalues --    0.17675   0.17872   0.18480   0.19102   0.19956
 Alpha virt. eigenvalues --    0.20222   0.20456   0.20717   0.21562   0.21833
 Alpha virt. eigenvalues --    0.22094   0.22915   0.23304   0.23490   0.24281
 Alpha virt. eigenvalues --    0.24478   0.24881   0.25624   0.26523   0.27182
 Alpha virt. eigenvalues --    0.28427   0.29460   0.29643   0.29915   0.30748
 Alpha virt. eigenvalues --    0.31638   0.38410   0.42618   0.44940   0.47630
 Alpha virt. eigenvalues --    0.48146   0.49529   0.49657   0.51445   0.51599
 Alpha virt. eigenvalues --    0.52112   0.52683   0.53495   0.53868   0.54243
 Alpha virt. eigenvalues --    0.54848   0.55475   0.56413   0.57615   0.58535
 Alpha virt. eigenvalues --    0.59344   0.60531   0.61137   0.61611   0.62300
 Alpha virt. eigenvalues --    0.63622   0.64069   0.65038   0.65942   0.66624
 Alpha virt. eigenvalues --    0.67056   0.67739   0.68542   0.69059   0.70931
 Alpha virt. eigenvalues --    0.72535   0.73810   0.74528   0.75551   0.76357
 Alpha virt. eigenvalues --    0.77589   0.79161   0.79501   0.81206   0.81630
 Alpha virt. eigenvalues --    0.82196   0.82601   0.83099   0.83627   0.83900
 Alpha virt. eigenvalues --    0.84605   0.85261   0.86350   0.86460   0.86712
 Alpha virt. eigenvalues --    0.86898   0.88059   0.88674   0.89322   0.89942
 Alpha virt. eigenvalues --    0.90117   0.90337   0.91271   0.91738   0.91949
 Alpha virt. eigenvalues --    0.93140   0.93345   0.93775   0.94020   0.94502
 Alpha virt. eigenvalues --    0.95121   0.95373   0.96099   0.96506   0.97272
 Alpha virt. eigenvalues --    0.97636   0.97889   0.98811   1.00407   1.01043
 Alpha virt. eigenvalues --    1.02113   1.02352   1.03873   1.04405   1.04744
 Alpha virt. eigenvalues --    1.06134   1.08252   1.09830   1.09980   1.10989
 Alpha virt. eigenvalues --    1.11564   1.12090   1.15980   1.16093   1.17906
 Alpha virt. eigenvalues --    1.19331   1.21209   1.23445   1.25375   1.27855
 Alpha virt. eigenvalues --    1.29489   1.30960   1.33643   1.34446   1.37595
 Alpha virt. eigenvalues --    1.38552   1.39041   1.39604   1.43675   1.44991
 Alpha virt. eigenvalues --    1.45731   1.49007   1.52028   1.54165   1.56146
 Alpha virt. eigenvalues --    1.56789   1.57352   1.59662   1.60144   1.61435
 Alpha virt. eigenvalues --    1.64572   1.66931   1.67500   1.69016   1.71331
 Alpha virt. eigenvalues --    1.72245   1.74992   1.76878   1.78288   1.80401
 Alpha virt. eigenvalues --    1.81408   1.81636   1.83540   1.83609   1.84132
 Alpha virt. eigenvalues --    1.85537   1.86012   1.87341   1.88210   1.89181
 Alpha virt. eigenvalues --    1.90153   1.91105   1.93370   1.94258   1.94369
 Alpha virt. eigenvalues --    1.95664   1.96605   1.97488   1.98139   1.99268
 Alpha virt. eigenvalues --    1.99466   2.00486   2.02126   2.03394   2.04066
 Alpha virt. eigenvalues --    2.04422   2.05295   2.05444   2.06776   2.08304
 Alpha virt. eigenvalues --    2.09181   2.10526   2.11997   2.13636   2.14541
 Alpha virt. eigenvalues --    2.15077   2.16959   2.19055   2.19421   2.21190
 Alpha virt. eigenvalues --    2.23735   2.25103   2.25518   2.26634   2.29223
 Alpha virt. eigenvalues --    2.31026   2.31569   2.31898   2.32945   2.33579
 Alpha virt. eigenvalues --    2.34237   2.36205   2.36361   2.37291   2.38169
 Alpha virt. eigenvalues --    2.39116   2.40234   2.41353   2.43356   2.45015
 Alpha virt. eigenvalues --    2.45955   2.46224   2.47399   2.50374   2.57483
 Alpha virt. eigenvalues --    2.60243   2.63362   2.63848   2.64432   2.66051
 Alpha virt. eigenvalues --    2.69101   2.71758   2.72168   2.74667   2.77571
 Alpha virt. eigenvalues --    2.78763   2.81752   2.81860   2.85090   2.87760
 Alpha virt. eigenvalues --    2.88994   2.89554   3.90188   3.93121   4.00990
 Alpha virt. eigenvalues --    4.04211   4.07875   4.12801   4.16449   4.19888
 Alpha virt. eigenvalues --    4.21330   4.23994   4.28327   4.33530   4.35157
 Alpha virt. eigenvalues --    4.38169   4.40310   4.48568   4.52096   4.55185
 Alpha virt. eigenvalues --    4.57041   4.62491
          Condensed to atoms (all electrons):
 Mulliken charges:
               1
     1  C   -0.459314
     2  C   -0.250863
     3  C   -0.121570
     4  N   -0.561708
     5  C   -0.162124
     6  C   -0.328405
     7  C   -0.477101
     8  S    1.246205
     9  O   -0.543812
    10  O   -0.542025
    11  N   -0.557198
    12  C   -0.158363
    13  C   -0.157130
    14  N   -0.379858
    15  C   -0.148031
    16  C   -0.162390
    17  C    0.044059
    18  C   -0.457821
    19  C   -0.257073
    20  C   -0.434384
    21  H    0.146829
    22  H    0.151377
    23  H    0.140761
    24  H    0.147638
    25  H    0.132967
    26  H    0.143562
    27  H    0.111792
    28  H    0.304252
    29  H    0.181652
    30  H    0.166473
    31  H    0.205202
    32  H    0.161673
    33  H    0.193310
    34  H    0.165936
    35  H    0.161978
    36  H    0.184141
    37  H    0.152658
    38  H    0.155294
    39  H    0.146932
    40  H    0.148504
    41  H    0.146610
    42  H    0.168825
    43  H    0.124132
    44  H    0.146528
    45  H    0.141168
    46  H    0.149207
    47  H    0.132613
    48  H    0.129274
    49  H    0.135725
    50  H    0.135930
    51  H    0.155963
 Sum of Mulliken charges =   0.00000
 Mulliken charges with hydrogens summed into heavy atoms:
               1
     1  C   -0.020347
     2  C    0.029742
     3  C    0.133784
     4  N   -0.257456
     5  C    0.186001
     6  C   -0.123203
     7  C    0.043819
     8  S    1.246205
     9  O   -0.543812
    10  O   -0.542025
    11  N   -0.557198
    12  C    0.187756
    13  C    0.150822
    14  N   -0.379858
    15  C    0.147404
    16  C    0.153045
    17  C    0.168191
    18  C   -0.020918
    19  C    0.004815
    20  C   -0.006766
 APT charges:
               1
     1  C   -1.054379
     2  C   -1.467494
     3  C   -0.850878
     4  N   -0.390808
     5  C   -0.633670
     6  C   -0.703735
     7  C   -1.162024
     8  S    0.136701
     9  O   -0.283969
    10  O    0.032163
    11  N   -0.324206
    12  C   -0.851630
    13  C   -1.019039
    14  N   -0.216376
    15  C   -0.753214
    16  C   -0.517829
    17  C   -0.465874
    18  C   -1.075751
    19  C   -1.163524
    20  C   -1.389216
    21  H   -0.112709
    22  H    1.047650
    23  H    0.197934
    24  H    0.510639
    25  H    0.910654
    26  H    0.661705
    27  H    0.213123
    28  H    0.245415
    29  H    0.167530
    30  H    0.624465
    31  H    0.733262
    32  H    0.129800
    33  H    0.451063
    34  H    0.637748
    35  H    0.382115
    36  H    0.581915
    37  H    0.397738
    38  H    0.713391
    39  H    0.359792
    40  H    0.459774
    41  H    0.299879
    42  H    0.355955
    43  H    0.435861
    44  H    0.371489
    45  H    0.766582
    46  H    0.009634
    47  H    0.771024
    48  H    0.417563
    49  H    0.348469
    50  H    1.016843
    51  H    0.048449
 Sum of APT charges =   0.00000
 APT charges with hydrogens summed into heavy atoms:
               1
     1  C    0.078496
     2  C   -0.046202
     3  C    0.023950
     4  N   -0.145393
     5  C    0.158326
     6  C    0.029527
     7  C    0.056587
     8  S    0.136701
     9  O   -0.283969
    10  O    0.032163
    11  N   -0.324206
    12  C    0.112400
    13  C    0.092090
    14  N   -0.216376
    15  C    0.066352
    16  C    0.138005
    17  C   -0.030013
    18  C    0.071953
    19  C    0.025063
    20  C    0.024544
 Electronic spatial extent (au):  <R**2>=           9106.0097
 Charge=             -0.0000 electrons
 Dipole moment (field-independent basis, Debye):
    X=              0.5301    Y=             -3.6821    Z=             -0.9452  Tot=              3.8382
 Quadrupole moment (field-independent basis, Debye-Ang):
   XX=           -118.2973   YY=           -145.9273   ZZ=           -138.5243
   XY=             -3.0012   XZ=             -5.3010   YZ=             -1.7626
 Traceless Quadrupole moment (field-independent basis, Debye-Ang):
   XX=             15.9523   YY=            -11.6777   ZZ=             -4.2746
   XY=             -3.0012   XZ=             -5.3010   YZ=             -1.7626
 Octapole moment (field-independent basis, Debye-Ang**2):
  XXX=             41.1412  YYY=            -30.8395  ZZZ=             -6.8523  XYY=             -0.0787
  XXY=             26.2296  XXZ=              0.2916  XZZ=             -2.2856  YZZ=             -0.2101
  YYZ=              4.4620  XYZ=             15.1390
 Hexadecapole moment (field-independent basis, Debye-Ang**3):
 XXXX=          -8903.5982 YYYY=          -2380.6869 ZZZZ=           -850.2671 XXXY=            -42.6809
 XXXZ=            -37.7248 YYYX=            -35.8027 YYYZ=              5.0338 ZZZX=             -3.0158
 ZZZY=            -14.7158 XXYY=          -1863.2100 XXZZ=          -1683.7917 YYZZ=           -553.1697
 XXYZ=            -22.3061 YYXZ=             -8.2411 ZZXY=              8.1811
 N-N= 1.948724976418D+03 E-N=-6.854820619626D+03  KE= 1.255301228755D+03
  Exact polarizability:   0.000   0.000   0.000   0.000   0.000   0.000
 Approx polarizability: 269.222  -2.418 261.953  -3.757  -7.909 256.075
 Calling FoFJK, ICntrl=    100147 FMM=F ISym2X=0 I1Cent= 0 IOpClX= 0 NMat=1 NMatS=1 NMatT=0.
 ***** Axes restored to original set *****
 -------------------------------------------------------------------
 Center     Atomic                   Forces (Hartrees/Bohr)
 Number     Number              X              Y              Z
 -------------------------------------------------------------------
      1        6          -0.000298789   -0.001599864   -0.002588693
      2        6           0.000456090   -0.003172166    0.001056383
      3        6          -0.004579911    0.002471497   -0.010921614
      4        7          -0.000229032   -0.005643695    0.012104264
      5        6          -0.021055564    0.005079644   -0.005937881
      6        6           0.004735740   -0.007661330   -0.006150818
      7        6           0.002366070    0.004138753   -0.004219600
      8       16           0.002703044    0.011455190   -0.015150537
      9        8          -0.023526099   -0.010948775    0.020132779
     10        8           0.019479435    0.002243372    0.007110006
     11        7           0.000429080    0.019893053   -0.015722661
     12        6          -0.000554925   -0.003911143   -0.000249995
     13        6           0.002611921   -0.006131968   -0.012350371
     14        7          -0.009551084   -0.005393651    0.003131214
     15        6           0.014024237    0.003788323    0.000162983
     16        6           0.005087458   -0.001668297    0.002754190
     17        6          -0.000356692    0.010776462    0.008119628
     18        6          -0.005781412   -0.001104452    0.002799368
     19        6           0.000309028   -0.001264202   -0.005419236
     20        6           0.004418853    0.002307124    0.000216654
     21        1          -0.000034546    0.001269790   -0.000035179
     22        1           0.000646691    0.001579930   -0.001198801
     23        1           0.001878893    0.001041054   -0.001087288
     24        1           0.000328798    0.000431068    0.002511905
     25        1           0.000405716   -0.001055717    0.000726110
     26        1          -0.000214151    0.003742488    0.003197896
     27        1           0.007747165   -0.005288969   -0.001001508
     28        1           0.000357911   -0.001592203    0.001739183
     29        1           0.003428388    0.001836892    0.002503420
     30        1           0.001050747   -0.000314000   -0.005187014
     31        1           0.001859029    0.007155798    0.005266420
     32        1          -0.000089566    0.001013092    0.000500944
     33        1          -0.002482513   -0.000051180    0.001499082
     34        1          -0.002237272   -0.002413250    0.001591743
     35        1          -0.001346352   -0.000254105    0.001667958
     36        1          -0.002179914   -0.004053572   -0.001687126
     37        1           0.000854437   -0.001946870   -0.000387276
     38        1          -0.005473994   -0.001011382    0.000446701
     39        1           0.002362496   -0.002671427    0.000615353
     40        1          -0.000844231    0.002615978    0.005518227
     41        1           0.001306213   -0.002750848    0.001776447
     42        1          -0.002715019   -0.000437597    0.002312399
     43        1           0.004169826   -0.003555055   -0.003196161
     44        1           0.001073811   -0.000895131    0.000395038
     45        1           0.000221512    0.001329889    0.000212904
     46        1           0.001328614   -0.002068695    0.001081420
     47        1          -0.000710109   -0.003157508    0.002757490
     48        1           0.000235825   -0.001458977    0.002393137
     49        1           0.000035069   -0.000450983   -0.001470461
     50        1          -0.000222220    0.001365788   -0.001151932
     51        1          -0.001428701   -0.001608173   -0.001187091
 -------------------------------------------------------------------
 Cartesian Forces:  Max     0.023526099 RMS     0.005675961

 GradGradGradGradGradGradGradGradGradGradGradGradGradGradGradGradGradGrad
 Berny optimization.
 Search for a local minimum.
 Step number   1 out of a maximum of  163
 All quantities printed in internal units (Hartrees-Bohrs-Radians)
 Second derivative matrix not updated -- analytic derivatives used.
 ITU=  0
     Eigenvalues ---   -0.00092  -0.00030  -0.00013  -0.00003   0.00014
     Eigenvalues ---    0.00045   0.00055   0.00110   0.00168   0.00181
     Eigenvalues ---    0.00197   0.00222   0.00233   0.00298   0.00331
     Eigenvalues ---    0.00344   0.00512   0.00557   0.00655   0.00724
     Eigenvalues ---    0.00742   0.00832   0.00874   0.00980   0.01149
     Eigenvalues ---    0.01527   0.01696   0.01904   0.02051   0.02171
     Eigenvalues ---    0.02445   0.02682   0.03212   0.03332   0.03410
     Eigenvalues ---    0.03561   0.04089   0.04319   0.04446   0.04484
     Eigenvalues ---    0.04689   0.05000   0.05090   0.05154   0.05201
     Eigenvalues ---    0.05290   0.05439   0.05525   0.05868   0.06011
     Eigenvalues ---    0.06177   0.06267   0.06621   0.06727   0.06771
     Eigenvalues ---    0.06899   0.07299   0.07631   0.07750   0.07849
     Eigenvalues ---    0.07954   0.08277   0.08419   0.09200   0.09373
     Eigenvalues ---    0.09765   0.10191   0.10601   0.10966   0.11365
     Eigenvalues ---    0.11399   0.11627   0.11670   0.11858   0.12037
     Eigenvalues ---    0.12794   0.13555   0.13800   0.14214   0.14524
     Eigenvalues ---    0.14749   0.15155   0.15342   0.16343   0.16935
     Eigenvalues ---    0.17393   0.17605   0.17973   0.18251   0.20066
     Eigenvalues ---    0.20486   0.21149   0.21219   0.21805   0.22570
     Eigenvalues ---    0.24339   0.25400   0.27164   0.29032   0.30729
     Eigenvalues ---    0.34219   0.35934   0.36951   0.39834   0.43298
     Eigenvalues ---    0.45329   0.49704   0.50793   0.52153   0.54748
     Eigenvalues ---    0.57839   0.60472   0.60979   0.63862   0.66835
     Eigenvalues ---    0.68315   0.70594   0.72163   0.73157   0.74081
     Eigenvalues ---    0.74345   0.75689   0.76284   0.76443   0.77019
     Eigenvalues ---    0.77856   0.78013   0.78287   0.80243   0.80694
     Eigenvalues ---    0.83484   0.84063   0.84995   0.85046   0.85264
     Eigenvalues ---    0.87076   0.87652   0.88240   0.89162   0.89394
     Eigenvalues ---    0.91000   0.91405   0.92925   0.93934   1.04571
     Eigenvalues ---    1.12836   1.71766
 RFO step:  Lambda=-1.51857842D-02 EMin=-9.23799345D-04
 Linear search not attempted -- first point.
 Maximum step size (   0.300) exceeded in Quadratic search.
    -- Step size scaled by   0.298
 B after Tr=    -0.005096   -0.002398    0.005510
         Rot=    1.000000   -0.000003   -0.000929   -0.000344 Ang=  -0.11 deg.
 Variable       Old X    -DE/DX   Delta X   Delta X   Delta X     New X
                                 (Linear)    (Quad)   (Total)
    X1        1.99304  -0.00030   0.00000   0.01329   0.00795   2.00099
    Y1        0.14589  -0.00160   0.00000   0.02906   0.02805   0.17393
    Z1       -0.06126  -0.00259   0.00000  -0.00320  -0.00141  -0.06268
    X2        1.32275   0.00046   0.00000   0.01314   0.01305   1.33580
    Y2       -1.62787  -0.00317   0.00000   0.01380   0.01231  -1.61556
    Z2        2.10861   0.00106   0.00000  -0.01074  -0.00772   2.10089
    X3        2.40483  -0.00458   0.00000   0.00550   0.00961   2.41443
    Y3       -0.81228   0.00247   0.00000   0.00883   0.00807  -0.80421
    Z3        4.66972  -0.01092   0.00000  -0.00784  -0.00682   4.66290
    X4        1.52318  -0.00023   0.00000  -0.01456  -0.01094   1.51224
    Y4        1.71489  -0.00564   0.00000  -0.00409  -0.00548   1.70941
    Z4        5.31098   0.01210   0.00000   0.01713   0.01983   5.33081
    X5        2.28324  -0.02106   0.00000  -0.02141  -0.01376   2.26949
    Y5        2.59788   0.00508   0.00000   0.00244   0.00156   2.59944
    Z5        7.81836  -0.00594   0.00000   0.00901   0.01032   7.82868
    X6        5.03213   0.00474   0.00000  -0.00750   0.00019   5.03232
    Y6        3.49363  -0.00766   0.00000   0.00562   0.00664   3.50027
    Z6        8.18775  -0.00615   0.00000  -0.00657  -0.01039   8.17736
    X7        6.51644   0.00237   0.00000  -0.01926  -0.01650   6.49994
    Y7        4.25066   0.00414   0.00000   0.00835   0.01039   4.26104
    Z7        5.82722  -0.00422   0.00000  -0.01342  -0.01997   5.80725
    X8        5.12976   0.00270   0.00000   0.02411   0.03445   5.16420
    Y8        6.00871   0.01146   0.00000   0.00686   0.00796   6.01666
    Z8       10.54152  -0.01515   0.00000  -0.00041  -0.00446  10.53706
    X9        2.99009  -0.02353   0.00000   0.07133   0.08514   3.07524
    Y9        5.78570  -0.01095   0.00000  -0.06366  -0.06401   5.72169
    Z9       12.23021   0.02013   0.00000   0.07088   0.07072  12.30093
   X10        7.67072   0.01948   0.00000   0.06116   0.07320   7.74392
   Y10        6.07524   0.00224   0.00000   0.04253   0.04539   6.12063
   Z10       11.56467   0.00711   0.00000  -0.06851  -0.07734  11.48733
   X11        4.73614   0.00043   0.00000  -0.03023  -0.02488   4.71127
   Y11        8.72812   0.01989   0.00000   0.01037   0.01116   8.73927
   Z11        8.85648  -0.01572   0.00000   0.00527   0.00207   8.85856
   X12        5.23675  -0.00055   0.00000  -0.03129  -0.02461   5.21215
   Y12       11.04466  -0.00391   0.00000  -0.00710  -0.00597  11.03868
   Z12       10.42297  -0.00025   0.00000   0.01079   0.00668  10.42965
   X13        5.17934   0.00261   0.00000  -0.01460  -0.01263   5.16672
   Y13       13.46048  -0.00613   0.00000  -0.01908  -0.01798  13.44251
   Z13        8.78857  -0.01235   0.00000  -0.00236  -0.00638   8.78219
   X14        2.96933  -0.00955   0.00000  -0.01888  -0.02016   2.94917
   Y14       13.79407  -0.00539   0.00000  -0.02535  -0.02576  13.76832
   Z14        7.13538   0.00313   0.00000   0.01349   0.01359   7.14897
   X15        2.32283   0.01402   0.00000  -0.00997  -0.01204   2.31079
   Y15       11.42955   0.00379   0.00000  -0.01756  -0.01840  11.41116
   Z15        5.83772   0.00016   0.00000   0.01453   0.01580   5.85352
   X16        2.28277   0.00509   0.00000  -0.02801  -0.02536   2.25741
   Y16        9.03433  -0.00167   0.00000  -0.01162  -0.01250   9.02183
   Z16        7.48963   0.00275   0.00000   0.02434   0.02570   7.51533
   X17        0.80691  -0.00036   0.00000  -0.00715  -0.00764   0.79927
   Y17       15.22906   0.01078   0.00000   0.00553   0.00364  15.23270
   Z17        8.12074   0.00812   0.00000  -0.00522  -0.00113   8.11961
   X18       -0.30814  -0.00578   0.00000  -0.03681  -0.03203  -0.34017
   Y18       14.29177  -0.00110   0.00000   0.01908   0.01639  14.30816
   Z18       10.62107   0.00280   0.00000  -0.00947  -0.00326  10.61782
   X19        1.43294   0.00031   0.00000   0.01528   0.01325   1.44619
   Y19       18.07633  -0.00126   0.00000  -0.00257  -0.00401  18.07231
   Z19        8.35775  -0.00542   0.00000  -0.02097  -0.01806   8.33969
   X20        2.37544   0.00442   0.00000   0.05125   0.04387   2.41931
   Y20       19.25552   0.00231   0.00000  -0.01623  -0.01699  19.23852
   Z20        5.90507   0.00022   0.00000  -0.01576  -0.01465   5.89042
   X21        1.04889  -0.00003   0.00000   0.00643   0.00019   1.04908
   Y21        1.97620   0.00127   0.00000   0.02603   0.02436   2.00056
   Z21        0.11867  -0.00004   0.00000   0.00725   0.01081   0.12949
   X22        1.38816   0.00065   0.00000   0.02319   0.01505   1.40321
   Y22       -0.68321   0.00158   0.00000   0.04462   0.04320  -0.64001
   Z22       -1.85804  -0.00120   0.00000  -0.01340  -0.01051  -1.86855
   X23        4.03513   0.00188   0.00000   0.01317   0.00744   4.04257
   Y23        0.46056   0.00104   0.00000   0.04223   0.04262   0.50318
   Z23       -0.15855  -0.00109   0.00000   0.00397   0.00197  -0.15658
   X24       -0.74041   0.00033   0.00000   0.01384   0.01411  -0.72631
   Y24       -1.78600   0.00043   0.00000   0.01013   0.00723  -1.77877
   Z24        2.23553   0.00251   0.00000  -0.00675   0.00010   2.23562
   X25        2.03811   0.00041   0.00000   0.02031   0.02069   2.05880
   Y25       -3.52217  -0.00106   0.00000   0.01682   0.01583  -3.50633
   Z25        1.66812   0.00073   0.00000  -0.01289  -0.01122   1.65689
   X26        1.77678  -0.00021   0.00000   0.00878   0.01649   1.79326
   Y26       -2.16995   0.00374   0.00000   0.00979   0.00859  -2.16136
   Z26        6.10281   0.00320   0.00000  -0.00441  -0.00224   6.10057
   X27        4.47056   0.00775   0.00000   0.01197   0.01601   4.48657
   Y27       -0.89186  -0.00529   0.00000   0.00267   0.00334  -0.88852
   Z27        4.60052  -0.00100   0.00000  -0.00479  -0.00762   4.59290
   X28        2.05145   0.00036   0.00000  -0.03185  -0.03161   2.01984
   Y28        2.97740  -0.00159   0.00000   0.00586   0.00483   2.98222
   Z28        3.95951   0.00174   0.00000   0.02043   0.02219   3.98170
   X29        0.95329   0.00343   0.00000  -0.00986  -0.00235   0.95094
   Y29        4.11038   0.00184   0.00000   0.00376   0.00197   4.11235
   Z29        8.27972   0.00250   0.00000   0.03003   0.03380   8.31352
   X30        1.86316   0.00105   0.00000   0.00065   0.01192   1.87507
   Y30        1.13516  -0.00031   0.00000  -0.01025  -0.01140   1.12375
   Z30        9.23014  -0.00519   0.00000  -0.00172   0.00032   9.23046
   X31        6.07475   0.00186   0.00000   0.00707   0.01749   6.09224
   Y31        1.93092   0.00716   0.00000   0.02813   0.02987   1.96079
   Z31        9.07193   0.00527   0.00000   0.01214   0.00635   9.07828
   X32        5.54994  -0.00009   0.00000  -0.02226  -0.02256   5.52738
   Y32        5.68944   0.00101   0.00000   0.01341   0.01479   5.70423
   Z32        4.70547   0.00050   0.00000  -0.00395  -0.00868   4.69679
   X33        8.37459  -0.00248   0.00000  -0.01989  -0.01669   8.35790
   Y33        5.00673  -0.00005   0.00000   0.00398   0.00730   5.01403
   Z33        6.33999   0.00150   0.00000  -0.01063  -0.02062   6.31938
   X34        6.85203  -0.00224   0.00000  -0.03198  -0.03037   6.82166
   Y34        2.62186  -0.00241   0.00000   0.00286   0.00513   2.62699
   Z34        4.60046   0.00159   0.00000  -0.00975  -0.01690   4.58357
   X35        3.84032  -0.00135   0.00000  -0.03816  -0.02874   3.81158
   Y35       11.16104  -0.00025   0.00000   0.00152   0.00168  11.16272
   Z35       11.94481   0.00167   0.00000   0.00694   0.00543  11.95024
   X36        7.11580  -0.00218   0.00000  -0.03734  -0.02895   7.08685
   Y36       10.90691  -0.00405   0.00000  -0.03052  -0.02811  10.87880
   Z36       11.28078  -0.00169   0.00000   0.01528   0.00769  11.28847
   X37        6.84000   0.00085   0.00000  -0.01037  -0.01065   6.82935
   Y37       13.40118  -0.00195   0.00000  -0.03105  -0.02880  13.37239
   Z37        7.54422  -0.00039   0.00000   0.00393  -0.00318   7.54104
   X38        5.47550  -0.00547   0.00000  -0.03309  -0.03000   5.44550
   Y38       15.11091  -0.00101   0.00000  -0.01535  -0.01406  15.09685
   Z38       10.00121   0.00045   0.00000  -0.00364  -0.00817   9.99304
   X39        3.75233   0.00236   0.00000  -0.00465  -0.00925   3.74309
   Y39       11.14689  -0.00267   0.00000  -0.03825  -0.03810  11.10879
   Z39        4.35814   0.00062   0.00000   0.02272   0.02133   4.37947
   X40        0.52472  -0.00084   0.00000  -0.01375  -0.01782   0.50690
   Y40       11.59952   0.00262   0.00000  -0.00541  -0.00748  11.59204
   Z40        4.82135   0.00552   0.00000   0.02490   0.02952   4.85087
   X41        1.98947   0.00131   0.00000  -0.02679  -0.02541   1.96406
   Y41        7.45289  -0.00275   0.00000  -0.02471  -0.02579   7.42710
   Z41        6.20063   0.00178   0.00000   0.03979   0.04169   6.24232
   X42        0.71299  -0.00272   0.00000  -0.03061  -0.02549   0.68750
   Y42        9.06651  -0.00044   0.00000  -0.00019  -0.00216   9.06435
   Z42        8.82978   0.00231   0.00000   0.02676   0.03104   8.86082
   X43       -0.71532   0.00417   0.00000   0.01560   0.01253  -0.70279
   Y43       15.12195  -0.00356   0.00000  -0.00388  -0.00679  15.11515
   Z43        6.71185  -0.00320   0.00000  -0.02874  -0.02185   6.69000
   X44        1.03591   0.00107   0.00000  -0.03778  -0.03020   1.00571
   Y44       14.46463  -0.00090   0.00000   0.00625   0.00448  14.46911
   Z44       12.18189   0.00040   0.00000  -0.00596  -0.00225  12.17965
   X45       -1.97620   0.00022   0.00000  -0.02677  -0.02186  -1.99806
   Y45       15.41293   0.00133   0.00000   0.03782   0.03399  15.44692
   Z45       11.12302   0.00021   0.00000  -0.01995  -0.01065  11.11237
   X46       -0.93736   0.00133   0.00000  -0.04421  -0.03832  -0.97568
   Y46       12.33099  -0.00207   0.00000   0.02055   0.01743  12.34842
   Z46       10.49722   0.00108   0.00000  -0.01050  -0.00311  10.49411
   X47       -0.28431  -0.00071   0.00000   0.01355   0.01187  -0.27244
   Y47       19.08882  -0.00316   0.00000   0.00139  -0.00124  19.08758
   Z47        8.93151   0.00276   0.00000  -0.03200  -0.02589   8.90562
   X48        2.82703   0.00024   0.00000  -0.00178  -0.00122   2.82581
   Y48       18.40693  -0.00146   0.00000  -0.01167  -0.01218  18.39475
   Z48        9.85332   0.00239   0.00000  -0.00102  -0.00067   9.85265
   X49        1.03319   0.00004   0.00000   0.06468   0.05463   1.08782
   Y49       18.93763  -0.00045   0.00000  -0.01426  -0.01592  18.92170
   Z49        4.36366  -0.00147   0.00000  -0.02958  -0.02601   4.33765
   X50        2.60300  -0.00022   0.00000   0.06286   0.05450   2.65750
   Y50       21.29770   0.00137   0.00000  -0.01567  -0.01627  21.28144
   Z50        6.14418  -0.00115   0.00000  -0.02627  -0.02560   6.11858
   X51        4.21023  -0.00143   0.00000   0.04622   0.03838   4.24861
   Y51       18.48222  -0.00161   0.00000  -0.03928  -0.03879  18.44343
   Z51        5.34687  -0.00119   0.00000   0.00210  -0.00020   5.34667
         Item               Value     Threshold  Converged?
 Maximum Force            0.023526     0.000450     NO 
 RMS     Force            0.005676     0.000300     NO 
 Maximum Displacement     0.085145     0.001800     NO 
 RMS     Displacement     0.023832     0.001200     NO 
 Predicted change in Energy=-4.039995D-03
 GradGradGradGradGradGradGradGradGradGradGradGradGradGradGradGradGradGrad

 Stoichiometry    C14H31N3O2S
 Framework group  C1[X(C14H31N3O2S)]
 Deg. of freedom   147
 Full point group                 C1      NOp   1
 Largest Abelian subgroup         C1      NOp   1
 Largest concise Abelian subgroup C1      NOp   1
                         Standard orientation:                         
 ---------------------------------------------------------------------
 Center     Atomic      Atomic             Coordinates (Angstroms)
 Number     Number       Type             X           Y           Z
 ---------------------------------------------------------------------
      1          6           0        4.943262   -2.999164   -0.619316
      2          6           0        5.573533   -2.001385    0.349524
      3          6           0        4.856574   -0.647900    0.397135
      4          7           0        3.461843   -0.825473    0.778374
      5          6           0        2.705541    0.410157    0.953940
      6          6           0        2.259726    1.171386   -0.319085
      7          6           0        2.201332    0.385460   -1.629496
      8         16           0        0.672250    2.022386   -0.014051
      9          8           0        0.554568    2.329456    1.403497
     10          8           0        0.555365    3.091831   -0.994915
     11          7           0       -0.523006    0.869764   -0.420199
     12          6           0       -1.891196    1.476911   -0.458550
     13          6           0       -2.917768    0.473047   -1.021688
     14          7           0       -2.927138   -0.859448   -0.406791
     15          6           0       -1.567199   -1.369968   -0.233908
     16          6           0       -0.552056   -0.385866    0.377493
     17          6           0       -3.848972   -1.106507    0.710263
     18          6           0       -3.715502   -0.163330    1.911591
     19          6           0       -5.320332   -1.131596    0.237807
     20          6           0       -5.587720   -2.118781   -0.893504
     21          1           0        3.960305   -3.335920   -0.274636
     22          1           0        5.576455   -3.887850   -0.709374
     23          1           0        4.831012   -2.562407   -1.617636
     24          1           0        5.594933   -2.441555    1.354060
     25          1           0        6.616253   -1.830113    0.056099
     26          1           0        5.357716   -0.012865    1.137539
     27          1           0        4.954276   -0.150711   -0.577027
     28          1           0        2.990296   -1.440234    0.118671
     29          1           0        1.838539    0.146139    1.564048
     30          1           0        3.277061    1.097838    1.589609
     31          1           0        2.959343    2.003127   -0.474938
     32          1           0        1.579581   -0.509841   -1.556861
     33          1           0        1.790833    1.008690   -2.430720
     34          1           0        3.202086    0.075477   -1.943197
     35          1           0       -2.178063    1.803847    0.547385
     36          1           0       -1.876564    2.354423   -1.112479
     37          1           0       -2.688174    0.333513   -2.086894
     38          1           0       -3.914114    0.925974   -0.992048
     39          1           0       -1.193979   -1.649711   -1.229382
     40          1           0       -1.572857   -2.297208    0.350974
     41          1           0        0.421230   -0.876754    0.335041
     42          1           0       -0.778646   -0.172812    1.426725
     43          1           0       -3.640774   -2.121814    1.076037
     44          1           0       -3.966144    0.868459    1.646716
     45          1           0       -4.399119   -0.470267    2.711444
     46          1           0       -2.707774   -0.180690    2.332353
     47          1           0       -5.950924   -1.408833    1.092759
     48          1           0       -5.646955   -0.129906   -0.067220
     49          1           0       -5.257887   -3.127049   -0.620843
     50          1           0       -6.660096   -2.162156   -1.110967
     51          1           0       -5.070533   -1.825964   -1.812018
 ---------------------------------------------------------------------
 Rotational constants (GHZ):           0.4761932           0.1459519           0.1254637
 Standard basis: 6-31G(d) (6D, 7F)
 There are   366 symmetry adapted cartesian basis functions of A   symmetry.
 There are   366 symmetry adapted basis functions of A   symmetry.
   366 basis functions,   708 primitive gaussians,   366 cartesian basis functions
    84 alpha electrons       84 beta electrons
       nuclear repulsion energy      1948.4828182317 Hartrees.
 NAtoms=   51 NActive=   51 NUniq=   51 SFac= 1.00D+00 NAtFMM=   60 NAOKFM=F Big=F
 Integral buffers will be    131072 words long.
 Raffenetti 2 integral format.
 Two-electron integral symmetry is turned on.
 Nuclear repulsion after empirical dispersion term =     1948.3801834972 Hartrees.
 One-electron integrals computed using PRISM.
 NBasis=   366 RedAO= T EigKep=  2.49D-03  NBF=   366
 NBsUse=   366 1.00D-06 EigRej= -1.00D+00 NBFU=   366
 Initial guess from the checkpoint file:  "JID_10045.chk"
 B after Tr=     0.000000    0.000000    0.000000
         Rot=    0.999999    0.001018    0.000001    0.000141 Ang=   0.12 deg.
 ExpMin= 1.17D-01 ExpMax= 2.19D+04 ExpMxC= 3.30D+03 IAcc=2 IRadAn=         4 AccDes= 0.00D+00
 Harris functional with IExCor=  402 and IRadAn=       4 diagonalized for initial guess.
 HarFok:  IExCor=  402 AccDes= 0.00D+00 IRadAn=         4 IDoV= 1 UseB2=F ITyADJ=14
 ICtDFT=  3500011 ScaDFX=  1.000000  1.000000  1.000000  1.000000
 FoFCou: FMM=F IPFlag=           0 FMFlag=      100000 FMFlg1=           0
         NFxFlg=           0 DoJE=T BraDBF=F KetDBF=T FulRan=T
         wScrn=  0.000000 ICntrl=       500 IOpCl=  0 I1Cent=   200000004 NGrid=           0
         NMat0=    1 NMatS0=      1 NMatT0=    0 NMatD0=    1 NMtDS0=    0 NMtDT0=    0
 Petite list used in FoFCou.
 Requested convergence on RMS density matrix=1.00D-08 within  32 cycles.
 Requested convergence on MAX density matrix=1.00D-06.
 Requested convergence on             energy=1.00D-06.
 No special actions if energy rises.
 Integral accuracy reduced to 1.0D-05 until final iterations.
 Initial convergence to 1.0D-05 achieved.  Increase integral accuracy.
 SCF Done:  E(RB3LYP) =  -1265.05618420     A.U. after   11 cycles
            NFock= 11  Conv=0.45D-08     -V/T= 2.0078
 QCSCF skips out because SCF is already converged.
 Calling FoFJK, ICntrl=      2127 FMM=F ISym2X=0 I1Cent= 0 IOpClX= 0 NMat=1 NMatS=1 NMatT=0.
 ***** Axes restored to original set *****
 -------------------------------------------------------------------
 Center     Atomic                   Forces (Hartrees/Bohr)
 Number     Number              X              Y              Z
 -------------------------------------------------------------------
      1        6          -0.000202585   -0.001181927   -0.001924329
      2        6           0.000355346   -0.002293517    0.000716350
      3        6          -0.003143459    0.001746070   -0.007765779
      4        7          -0.000184486   -0.004037735    0.008502301
      5        6          -0.015120707    0.003648004   -0.004153143
      6        6           0.003322913   -0.005301139   -0.004403415
      7        6           0.001558365    0.003018312   -0.003116673
      8       16           0.001837971    0.008232295   -0.009867277
      9        8          -0.015696389   -0.007755605    0.013493822
     10        8           0.013172499    0.001969804    0.004732796
     11        7           0.000467786    0.014231243   -0.011245708
     12        6          -0.000367943   -0.002665471   -0.000248628
     13        6           0.001870311   -0.004337197   -0.008848497
     14        7          -0.006894136   -0.003899779    0.002455153
     15        6           0.009936492    0.002671715    0.000067839
     16        6           0.003526398   -0.001178014    0.001903155
     17        6          -0.000328423    0.007575990    0.005822149
     18        6          -0.004208089   -0.000727920    0.002139362
     19        6           0.000300518   -0.000918507   -0.003800060
     20        6           0.003161923    0.001564083    0.000124568
     21        1           0.000062276    0.000846264   -0.000042658
     22        1           0.000506656    0.001203663   -0.000965906
     23        1           0.001364608    0.000708604   -0.000873917
     24        1           0.000283561    0.000314252    0.001905136
     25        1           0.000290131   -0.000856260    0.000565273
     26        1          -0.000026280    0.002798106    0.002329785
     27        1           0.005638314   -0.003942295   -0.000846102
     28        1           0.000030432   -0.001212032    0.001310865
     29        1           0.002330785    0.001441581    0.001837031
     30        1           0.000656484   -0.000190385   -0.003839268
     31        1           0.001326948    0.005569169    0.004017451
     32        1          -0.000115211    0.000812744    0.000261286
     33        1          -0.001864593   -0.000029424    0.001041031
     34        1          -0.001822554   -0.001763919    0.001166779
     35        1          -0.000996675   -0.000142915    0.001079711
     36        1          -0.001636728   -0.003141780   -0.001311160
     37        1           0.000615655   -0.001510041   -0.000459041
     38        1          -0.004062147   -0.000816812    0.000182944
     39        1           0.001835692   -0.001951876    0.000544498
     40        1          -0.000543472    0.001961944    0.004126887
     41        1           0.001036738   -0.002048181    0.001442207
     42        1          -0.001889470   -0.000288157    0.001681193
     43        1           0.003185407   -0.002692928   -0.002268149
     44        1           0.000656613   -0.000656991    0.000389408
     45        1           0.000078910    0.001004267    0.000293018
     46        1           0.000902863   -0.001472225    0.000907279
     47        1          -0.000426433   -0.002399477    0.002090002
     48        1           0.000175141   -0.001155271    0.001704002
     49        1           0.000117731   -0.000350661   -0.001038099
     50        1          -0.000008244    0.000912752   -0.000907749
     51        1          -0.001067447   -0.001312421   -0.000907723
 -------------------------------------------------------------------
 Cartesian Forces:  Max     0.015696389 RMS     0.003987472

 GradGradGradGradGradGradGradGradGradGradGradGradGradGradGradGradGradGrad
 Berny optimization.
 Search for a local minimum.
 Step number   2 out of a maximum of  163
 All quantities printed in internal units (Hartrees-Bohrs-Radians)
 Update second derivatives using D2CorN and points    1    2
 DE= -4.01D-03 DEPred=-4.04D-03 R= 9.92D-01
 TightC=F SS=  1.41D+00  RLast= 2.95D-01 DXNew= 5.0454D-01 8.8438D-01
 Trust test= 9.92D-01 RLast= 2.95D-01 DXMaxT set to 5.05D-01
 ITU=  1  0
 Linear search step of   0.590 exceeds DXMaxT=   0.505 but not scaled.
 Quartic linear search produced a step of  2.00000.
 B after Tr=    -0.000000   -0.000000   -0.000000
         Rot=    1.000000    0.000000    0.000000    0.000000 Ang=   0.00 deg.
 Variable       Old X    -DE/DX   Delta X   Delta X   Delta X     New X
                                 (Linear)    (Quad)   (Total)
    X1        2.00099  -0.00020   0.01590   0.00000   0.01590   2.01689
    Y1        0.17393  -0.00118   0.05609   0.00000   0.05609   0.23002
    Z1       -0.06268  -0.00192  -0.00282   0.00000  -0.00282  -0.06550
    X2        1.33580   0.00036   0.02609   0.00000   0.02609   1.36189
    Y2       -1.61556  -0.00229   0.02462   0.00000   0.02462  -1.59093
    Z2        2.10089   0.00072  -0.01544   0.00000  -0.01544   2.08545
    X3        2.41443  -0.00314   0.01921   0.00000   0.01921   2.43365
    Y3       -0.80421   0.00175   0.01614   0.00000   0.01614  -0.78806
    Z3        4.66290  -0.00777  -0.01364   0.00000  -0.01364   4.64927
    X4        1.51224  -0.00018  -0.02187   0.00000  -0.02187   1.49037
    Y4        1.70941  -0.00404  -0.01095   0.00000  -0.01095   1.69846
    Z4        5.33081   0.00850   0.03967   0.00000   0.03967   5.37048
    X5        2.26949  -0.01512  -0.02751   0.00000  -0.02751   2.24197
    Y5        2.59944   0.00365   0.00312   0.00000   0.00312   2.60256
    Z5        7.82868  -0.00415   0.02064   0.00000   0.02064   7.84933
    X6        5.03232   0.00332   0.00038   0.00000   0.00038   5.03270
    Y6        3.50027  -0.00530   0.01328   0.00000   0.01328   3.51355
    Z6        8.17736  -0.00440  -0.02078   0.00000  -0.02078   8.15658
    X7        6.49994   0.00156  -0.03300   0.00000  -0.03300   6.46694
    Y7        4.26104   0.00302   0.02077   0.00000   0.02077   4.28181
    Z7        5.80725  -0.00312  -0.03993   0.00000  -0.03993   5.76731
    X8        5.16420   0.00184   0.06889   0.00000   0.06889   5.23309
    Y8        6.01666   0.00823   0.01592   0.00000   0.01592   6.03258
    Z8       10.53706  -0.00987  -0.00891   0.00000  -0.00891  10.52814
    X9        3.07524  -0.01570   0.17029   0.00000   0.17029   3.24553
    Y9        5.72169  -0.00776  -0.12802   0.00000  -0.12802   5.59367
    Z9       12.30093   0.01349   0.14144   0.00000   0.14144  12.44237
   X10        7.74392   0.01317   0.14640   0.00000   0.14640   7.89031
   Y10        6.12063   0.00197   0.09078   0.00000   0.09078   6.21141
   Z10       11.48733   0.00473  -0.15469   0.00000  -0.15469  11.33264
   X11        4.71127   0.00047  -0.04976   0.00000  -0.04976   4.66151
   Y11        8.73927   0.01423   0.02232   0.00000   0.02232   8.76159
   Z11        8.85856  -0.01125   0.00415   0.00000   0.00415   8.86271
   X12        5.21215  -0.00037  -0.04921   0.00000  -0.04921   5.16293
   Y12       11.03868  -0.00267  -0.01195   0.00000  -0.01195  11.02674
   Z12       10.42965  -0.00025   0.01335   0.00000   0.01335  10.44300
   X13        5.16672   0.00187  -0.02525   0.00000  -0.02525   5.14146
   Y13       13.44251  -0.00434  -0.03595   0.00000  -0.03595  13.40656
   Z13        8.78219  -0.00885  -0.01275   0.00000  -0.01275   8.76944
   X14        2.94917  -0.00689  -0.04032   0.00000  -0.04032   2.90884
   Y14       13.76832  -0.00390  -0.05151   0.00000  -0.05151  13.71680
   Z14        7.14897   0.00246   0.02718   0.00000   0.02718   7.17614
   X15        2.31079   0.00994  -0.02408   0.00000  -0.02408   2.28672
   Y15       11.41116   0.00267  -0.03679   0.00000  -0.03679  11.37436
   Z15        5.85352   0.00007   0.03159   0.00000   0.03159   5.88511
   X16        2.25741   0.00353  -0.05071   0.00000  -0.05071   2.20670
   Y16        9.02183  -0.00118  -0.02500   0.00000  -0.02500   8.99683
   Z16        7.51533   0.00190   0.05140   0.00000   0.05140   7.56673
   X17        0.79927  -0.00033  -0.01528   0.00000  -0.01528   0.78399
   Y17       15.23270   0.00758   0.00728   0.00000   0.00728  15.23997
   Z17        8.11961   0.00582  -0.00225   0.00000  -0.00225   8.11736
   X18       -0.34017  -0.00421  -0.06405   0.00000  -0.06405  -0.40422
   Y18       14.30816  -0.00073   0.03278   0.00000   0.03278  14.34095
   Z18       10.61782   0.00214  -0.00652   0.00000  -0.00652  10.61130
   X19        1.44619   0.00030   0.02649   0.00000   0.02649   1.47268
   Y19       18.07231  -0.00092  -0.00803   0.00000  -0.00803  18.06428
   Z19        8.33969  -0.00380  -0.03612   0.00000  -0.03612   8.30357
   X20        2.41931   0.00316   0.08773   0.00000   0.08773   2.50704
   Y20       19.23852   0.00156  -0.03398   0.00000  -0.03398  19.20454
   Z20        5.89042   0.00012  -0.02931   0.00000  -0.02931   5.86111
   X21        1.04908   0.00006   0.00038   0.00000   0.00038   1.04947
   Y21        2.00056   0.00085   0.04872   0.00000   0.04872   2.04928
   Z21        0.12949  -0.00004   0.02163   0.00000   0.02163   0.15112
   X22        1.40321   0.00051   0.03010   0.00000   0.03010   1.43331
   Y22       -0.64001   0.00120   0.08640   0.00000   0.08640  -0.55362
   Z22       -1.86855  -0.00097  -0.02102   0.00000  -0.02102  -1.88957
   X23        4.04257   0.00136   0.01487   0.00000   0.01487   4.05744
   Y23        0.50318   0.00071   0.08523   0.00000   0.08523   0.58841
   Z23       -0.15658  -0.00087   0.00393   0.00000   0.00393  -0.15265
   X24       -0.72631   0.00028   0.02821   0.00000   0.02821  -0.69809
   Y24       -1.77877   0.00031   0.01445   0.00000   0.01445  -1.76432
   Z24        2.23562   0.00191   0.00019   0.00000   0.00019   2.23581
   X25        2.05880   0.00029   0.04139   0.00000   0.04139   2.10019
   Y25       -3.50633  -0.00086   0.03166   0.00000   0.03166  -3.47467
   Z25        1.65689   0.00057  -0.02245   0.00000  -0.02245   1.63445
   X26        1.79326  -0.00003   0.03297   0.00000   0.03297   1.82624
   Y26       -2.16136   0.00280   0.01719   0.00000   0.01719  -2.14417
   Z26        6.10057   0.00233  -0.00449   0.00000  -0.00449   6.09608
   X27        4.48657   0.00564   0.03201   0.00000   0.03201   4.51858
   Y27       -0.88852  -0.00394   0.00667   0.00000   0.00667  -0.88185
   Z27        4.59290  -0.00085  -0.01524   0.00000  -0.01524   4.57766
   X28        2.01984   0.00003  -0.06322   0.00000  -0.06322   1.95663
   Y28        2.98222  -0.00121   0.00965   0.00000   0.00965   2.99188
   Z28        3.98170   0.00131   0.04439   0.00000   0.04439   4.02609
   X29        0.95094   0.00233  -0.00470   0.00000  -0.00470   0.94625
   Y29        4.11235   0.00144   0.00395   0.00000   0.00395   4.11630
   Z29        8.31352   0.00184   0.06759   0.00000   0.06759   8.38111
   X30        1.87507   0.00066   0.02384   0.00000   0.02384   1.89891
   Y30        1.12375  -0.00019  -0.02281   0.00000  -0.02281   1.10094
   Z30        9.23046  -0.00384   0.00064   0.00000   0.00064   9.23110
   X31        6.09224   0.00133   0.03498   0.00000   0.03498   6.12722
   Y31        1.96079   0.00557   0.05974   0.00000   0.05974   2.02053
   Z31        9.07828   0.00402   0.01270   0.00000   0.01270   9.09099
   X32        5.52738  -0.00012  -0.04511   0.00000  -0.04511   5.48227
   Y32        5.70423   0.00081   0.02958   0.00000   0.02958   5.73380
   Z32        4.69679   0.00026  -0.01736   0.00000  -0.01736   4.67943
   X33        8.35790  -0.00186  -0.03337   0.00000  -0.03337   8.32453
   Y33        5.01403  -0.00003   0.01459   0.00000   0.01459   5.02862
   Z33        6.31938   0.00104  -0.04123   0.00000  -0.04123   6.27815
   X34        6.82166  -0.00182  -0.06074   0.00000  -0.06074   6.76093
   Y34        2.62699  -0.00176   0.01026   0.00000   0.01026   2.63726
   Z34        4.58357   0.00117  -0.03379   0.00000  -0.03379   4.54977
   X35        3.81158  -0.00100  -0.05747   0.00000  -0.05747   3.75411
   Y35       11.16272  -0.00014   0.00335   0.00000   0.00335  11.16607
   Z35       11.95024   0.00108   0.01086   0.00000   0.01086  11.96110
   X36        7.08685  -0.00164  -0.05790   0.00000  -0.05790   7.02896
   Y36       10.87880  -0.00314  -0.05622   0.00000  -0.05622  10.82259
   Z36       11.28847  -0.00131   0.01538   0.00000   0.01538  11.30384
   X37        6.82935   0.00062  -0.02129   0.00000  -0.02129   6.80806
   Y37       13.37239  -0.00151  -0.05759   0.00000  -0.05759  13.31480
   Z37        7.54104  -0.00046  -0.00636   0.00000  -0.00636   7.53467
   X38        5.44550  -0.00406  -0.06000   0.00000  -0.06000   5.38550
   Y38       15.09685  -0.00082  -0.02812   0.00000  -0.02812  15.06874
   Z38        9.99304   0.00018  -0.01633   0.00000  -0.01633   9.97670
   X39        3.74309   0.00184  -0.01850   0.00000  -0.01850   3.72459
   Y39       11.10879  -0.00195  -0.07619   0.00000  -0.07619  11.03260
   Z39        4.37947   0.00054   0.04266   0.00000   0.04266   4.42213
   X40        0.50690  -0.00054  -0.03563   0.00000  -0.03563   0.47127
   Y40       11.59204   0.00196  -0.01496   0.00000  -0.01496  11.57708
   Z40        4.85087   0.00413   0.05904   0.00000   0.05904   4.90991
   X41        1.96406   0.00104  -0.05082   0.00000  -0.05082   1.91324
   Y41        7.42710  -0.00205  -0.05159   0.00000  -0.05159   7.37551
   Z41        6.24232   0.00144   0.08338   0.00000   0.08338   6.32569
   X42        0.68750  -0.00189  -0.05098   0.00000  -0.05098   0.63652
   Y42        9.06435  -0.00029  -0.00432   0.00000  -0.00432   9.06003
   Z42        8.86082   0.00168   0.06208   0.00000   0.06208   8.92290
   X43       -0.70279   0.00319   0.02506   0.00000   0.02506  -0.67772
   Y43       15.11515  -0.00269  -0.01359   0.00000  -0.01359  15.10157
   Z43        6.69000  -0.00227  -0.04371   0.00000  -0.04371   6.64629
   X44        1.00571   0.00066  -0.06040   0.00000  -0.06040   0.94530
   Y44       14.46911  -0.00066   0.00896   0.00000   0.00896  14.47807
   Z44       12.17965   0.00039  -0.00449   0.00000  -0.00449  12.17515
   X45       -1.99806   0.00008  -0.04371   0.00000  -0.04371  -2.04177
   Y45       15.44692   0.00100   0.06799   0.00000   0.06799  15.51491
   Z45       11.11237   0.00029  -0.02130   0.00000  -0.02130  11.09107
   X46       -0.97568   0.00090  -0.07663   0.00000  -0.07663  -1.05231
   Y46       12.34842  -0.00147   0.03486   0.00000   0.03486  12.38328
   Z46       10.49411   0.00091  -0.00622   0.00000  -0.00622  10.48789
   X47       -0.27244  -0.00043   0.02374   0.00000   0.02374  -0.24870
   Y47       19.08758  -0.00240  -0.00248   0.00000  -0.00248  19.08511
   Z47        8.90562   0.00209  -0.05178   0.00000  -0.05178   8.85383
   X48        2.82581   0.00018  -0.00244   0.00000  -0.00244   2.82336
   Y48       18.39475  -0.00116  -0.02436   0.00000  -0.02436  18.37039
   Z48        9.85265   0.00170  -0.00133   0.00000  -0.00133   9.85132
   X49        1.08782   0.00012   0.10925   0.00000   0.10925   1.19707
   Y49       18.92170  -0.00035  -0.03185   0.00000  -0.03185  18.88986
   Z49        4.33765  -0.00104  -0.05202   0.00000  -0.05202   4.28563
   X50        2.65750  -0.00001   0.10899   0.00000   0.10899   2.76649
   Y50       21.28144   0.00091  -0.03254   0.00000  -0.03254  21.24890
   Z50        6.11858  -0.00091  -0.05119   0.00000  -0.05119   6.06739
   X51        4.24861  -0.00107   0.07676   0.00000   0.07676   4.32537
   Y51       18.44343  -0.00131  -0.07757   0.00000  -0.07757  18.36586
   Z51        5.34667  -0.00091  -0.00039   0.00000  -0.00039   5.34628
         Item               Value     Threshold  Converged?
 Maximum Force            0.015696     0.000450     NO 
 RMS     Force            0.003987     0.000300     NO 
 Maximum Displacement     0.170289     0.001800     NO 
 RMS     Displacement     0.047665     0.001200     NO 
 Predicted change in Energy=-4.433084D-03
 GradGradGradGradGradGradGradGradGradGradGradGradGradGradGradGradGradGrad

 Stoichiometry    C14H31N3O2S
 Framework group  C1[X(C14H31N3O2S)]
 Deg. of freedom   147
 Full point group                 C1      NOp   1
 Largest Abelian subgroup         C1      NOp   1
 Largest concise Abelian subgroup C1      NOp   1
                         Standard orientation:                         
 ---------------------------------------------------------------------
 Center     Atomic      Atomic             Coordinates (Angstroms)
 Number     Number       Type             X           Y           Z
 ---------------------------------------------------------------------
      1          6           0        4.912642   -3.006232   -0.633358
      2          6           0        5.560759   -2.012716    0.334698
      3          6           0        4.848760   -0.658945    0.391242
      4          7           0        3.459785   -0.820415    0.804583
      5          6           0        2.699318    0.403624    0.981189
      6          6           0        2.255917    1.157405   -0.313006
      7          6           0        2.195957    0.358763   -1.616257
      8         16           0        0.667505    2.030877   -0.035273
      9          8           0        0.605924    2.440850    1.384025
     10          8           0        0.534096    3.050164   -1.089160
     11          7           0       -0.535874    0.856039   -0.389309
     12          6           0       -1.887125    1.472143   -0.421848
     13          6           0       -2.897777    0.467906   -1.005359
     14          7           0       -2.906135   -0.851102   -0.377820
     15          6           0       -1.554495   -1.358707   -0.213329
     16          6           0       -0.548329   -0.376717    0.419054
     17          6           0       -3.855089   -1.114750    0.713995
     18          6           0       -3.735669   -0.193218    1.938701
     19          6           0       -5.312945   -1.140122    0.213745
     20          6           0       -5.566191   -2.101476   -0.946378
     21          1           0        3.929453   -3.335666   -0.277218
     22          1           0        5.532303   -3.902760   -0.739705
     23          1           0        4.785816   -2.565617   -1.630286
     24          1           0        5.584183   -2.448173    1.341120
     25          1           0        6.601498   -1.841116    0.033556
     26          1           0        5.348319   -0.019668    1.130322
     27          1           0        4.953100   -0.154563   -0.586450
     28          1           0        2.976269   -1.442619    0.160733
     29          1           0        1.825706    0.164884    1.590120
     30          1           0        3.287775    1.094896    1.593478
     31          1           0        2.929014    2.008483   -0.476659
     32          1           0        1.565807   -0.530045   -1.537336
     33          1           0        1.790006    0.985375   -2.415063
     34          1           0        3.200756    0.046066   -1.915045
     35          1           0       -2.182401    1.790605    0.587105
     36          1           0       -1.848939    2.355369   -1.064275
     37          1           0       -2.656911    0.338440   -2.069460
     38          1           0       -3.898158    0.910277   -0.960227
     39          1           0       -1.161614   -1.624446   -1.206322
     40          1           0       -1.576344   -2.280886    0.378157
     41          1           0        0.434226   -0.851026    0.385463
     42          1           0       -0.787700   -0.164896    1.469949
     43          1           0       -3.631144   -2.138145    1.048928
     44          1           0       -3.973220    0.844028    1.678326
     45          1           0       -4.436004   -0.507860    2.720897
     46          1           0       -2.729732   -0.216255    2.366068
     47          1           0       -5.945474   -1.428578    1.064083
     48          1           0       -5.635187   -0.126888   -0.064539
     49          1           0       -5.235123   -3.116134   -0.692996
     50          1           0       -6.635894   -2.147876   -1.180263
     51          1           0       -5.029454   -1.790739   -1.847716
 ---------------------------------------------------------------------
 Rotational constants (GHZ):           0.4722735           0.1463966           0.1258039
 Standard basis: 6-31G(d) (6D, 7F)
 There are   366 symmetry adapted cartesian basis functions of A   symmetry.
 There are   366 symmetry adapted basis functions of A   symmetry.
   366 basis functions,   708 primitive gaussians,   366 cartesian basis functions
    84 alpha electrons       84 beta electrons
       nuclear repulsion energy      1946.9981824201 Hartrees.
 NAtoms=   51 NActive=   51 NUniq=   51 SFac= 1.00D+00 NAtFMM=   60 NAOKFM=F Big=F
 Integral buffers will be    131072 words long.
 Raffenetti 2 integral format.
 Two-electron integral symmetry is turned on.
 Nuclear repulsion after empirical dispersion term =     1946.8954960266 Hartrees.
 One-electron integrals computed using PRISM.
 NBasis=   366 RedAO= T EigKep=  2.62D-03  NBF=   366
 NBsUse=   366 1.00D-06 EigRej= -1.00D+00 NBFU=   366
 Initial guess from the checkpoint file:  "JID_10045.chk"
 B after Tr=    -0.000000   -0.000000   -0.000000
         Rot=    0.999998    0.002012   -0.000000    0.000325 Ang=   0.23 deg.
 ExpMin= 1.17D-01 ExpMax= 2.19D+04 ExpMxC= 3.30D+03 IAcc=2 IRadAn=         4 AccDes= 0.00D+00
 Harris functional with IExCor=  402 and IRadAn=       4 diagonalized for initial guess.
 HarFok:  IExCor=  402 AccDes= 0.00D+00 IRadAn=         4 IDoV= 1 UseB2=F ITyADJ=14
 ICtDFT=  3500011 ScaDFX=  1.000000  1.000000  1.000000  1.000000
 FoFCou: FMM=F IPFlag=           0 FMFlag=      100000 FMFlg1=           0
         NFxFlg=           0 DoJE=T BraDBF=F KetDBF=T FulRan=T
         wScrn=  0.000000 ICntrl=       500 IOpCl=  0 I1Cent=   200000004 NGrid=           0
         NMat0=    1 NMatS0=      1 NMatT0=    0 NMatD0=    1 NMtDS0=    0 NMtDT0=    0
 Petite list used in FoFCou.
 Requested convergence on RMS density matrix=1.00D-08 within  32 cycles.
 Requested convergence on MAX density matrix=1.00D-06.
 Requested convergence on             energy=1.00D-06.
 No special actions if energy rises.
 Integral accuracy reduced to 1.0D-05 until final iterations.
 Initial convergence to 1.0D-05 achieved.  Increase integral accuracy.
 SCF Done:  E(RB3LYP) =  -1265.06012012     A.U. after   12 cycles
            NFock= 12  Conv=0.41D-08     -V/T= 2.0079
 QCSCF skips out because SCF is already converged.
 Calling FoFJK, ICntrl=      2127 FMM=F ISym2X=0 I1Cent= 0 IOpClX= 0 NMat=1 NMatS=1 NMatT=0.
 ***** Axes restored to original set *****
 -------------------------------------------------------------------
 Center     Atomic                   Forces (Hartrees/Bohr)
 Number     Number              X              Y              Z
 -------------------------------------------------------------------
      1        6          -0.000013516   -0.000341692   -0.000701890
      2        6           0.000129100   -0.000501000    0.000031451
      3        6          -0.000386956    0.000382460   -0.001450233
      4        7          -0.000080102   -0.000704318    0.000852916
      5        6          -0.003694887    0.000679917   -0.000270776
      6        6           0.000981249   -0.001141763   -0.000698402
      7        6          -0.000067480    0.000881770   -0.000893589
      8       16           0.000434606    0.001041416    0.005347634
      9        8           0.003001550    0.000412561   -0.004808981
     10        8          -0.003835691    0.000621669    0.000097958
     11        7           0.001688575    0.002676966   -0.002100114
     12        6           0.000201835    0.000063722    0.000026271
     13        6           0.000509572   -0.000533031   -0.001728707
     14        7          -0.001743607   -0.000639798    0.001423388
     15        6           0.001644984    0.000378081   -0.000477274
     16        6           0.000066828   -0.000465716    0.000029482
     17        6          -0.000483326    0.001130234    0.000900059
     18        6          -0.001056492    0.000132117    0.000743288
     19        6           0.000514158   -0.000236877   -0.000517296
     20        6           0.000745964   -0.000047571   -0.000043041
     21        1           0.000308501   -0.000097246   -0.000097906
     22        1           0.000254153    0.000519254   -0.000362224
     23        1           0.000253261   -0.000002720   -0.000429029
     24        1           0.000220563    0.000089770    0.000677417
     25        1           0.000035016   -0.000424135    0.000270234
     26        1           0.000353499    0.000926041    0.000583012
     27        1           0.001517718   -0.001259627   -0.000499363
     28        1          -0.000724272   -0.000742890    0.000658472
     29        1           0.000357965    0.000433372    0.000498888
     30        1          -0.000003677    0.000303112   -0.001349117
     31        1           0.000087275    0.002622473    0.001333778
     32        1          -0.000140592    0.000365434   -0.000157402
     33        1          -0.000641995    0.000024935    0.000111031
     34        1          -0.001036765   -0.000431154    0.000416016
[...]
     Eigenvalues ---    0.11035   0.11146   0.11383   0.11417   0.11737
     Eigenvalues ---    0.12201   0.12345   0.12523   0.12884   0.13399
     Eigenvalues ---    0.13949   0.14022   0.15106   0.15357   0.15692
     Eigenvalues ---    0.16543   0.16993   0.17211   0.17651   0.17880
     Eigenvalues ---    0.19332   0.20299   0.20697   0.21341   0.22061
     Eigenvalues ---    0.23055   0.24179   0.24413   0.25544   0.26932
     Eigenvalues ---    0.28148   0.28881   0.29397   0.31377   0.32871
     Eigenvalues ---    0.35190   0.37857   0.40423   0.42379   0.45055
     Eigenvalues ---    0.45809   0.47518   0.48565   0.52615   0.53444
     Eigenvalues ---    0.55385   0.58730   0.61707   0.62142   0.63351
     Eigenvalues ---    0.65501   0.66542   0.69109   0.70857   0.72827
     Eigenvalues ---    0.74541   0.74824   0.75857   0.76499   0.77440
     Eigenvalues ---    0.77725   0.79840   0.80370   0.81795   0.82956
     Eigenvalues ---    0.83032   0.83480   0.84655   0.85465   0.85733
     Eigenvalues ---    0.87764   0.88503   0.89624   0.90279   0.91992
     Eigenvalues ---    0.92550   0.97469   1.02095   1.10505   1.16651
     Eigenvalues ---    1.36994   3.71414
 RFO step:  Lambda=-2.09320893D+00 EMin=-2.09319771D+00
 I=     1 Eig=   -2.09D+00 Dot1= -2.90D-03
 I=     1 Stepn= -6.00D-01 RXN=   6.00D-01 EDone=F
 I=     2 Eig=   -1.35D+00 Dot1= -1.88D-02
 I=     2 Stepn= -3.00D-01 RXN=   6.71D-01 EDone=F
 I=     3 Eig=   -6.34D-01 Dot1= -1.08D-02
 I=     3 Stepn= -1.50D-01 RXN=   6.87D-01 EDone=F
 Mixed    3 eigenvectors in step.  Raw Step.Grad=  3.25D-02.
 RFO eigenvector is Hessian eigenvector with negative curvature.
 Taking step of  6.00D-01 in eigenvector direction(s).  Step.Grad=  3.30D-03.
 Skip linear search -- no minimum in search direction.
 Maximum step size (   0.357) exceeded in Quadratic search.
    -- Step size scaled by   0.595
 B after Tr=    -0.002210   -0.003100    0.003270
         Rot=    1.000000    0.000040   -0.000162   -0.000064 Ang=   0.02 deg.
 Variable       Old X    -DE/DX   Delta X   Delta X   Delta X     New X
                                 (Linear)    (Quad)   (Total)
    X1        3.47680   0.00000   0.00000  -0.01073  -0.01255   3.46425
    Y1       -2.80019   0.00010   0.00000  -0.00456  -0.00720  -2.80739
    Z1        0.08092   0.00007   0.00000   0.00244   0.00481   0.08573
    X2        2.09389   0.00008   0.00000   0.00841   0.00743   2.10132
    Y2       -2.97763   0.00014   0.00000   0.01606   0.01344  -2.96419
    Z2        2.60340  -0.00017   0.00000   0.01533   0.01816   2.62156
    X3        2.81532  -0.00006   0.00000   0.00645   0.00581   2.82113
    Y3       -0.90247  -0.00018   0.00000   0.00320   0.00083  -0.90164
    Z3        4.50286  -0.00006   0.00000  -0.00486  -0.00244   4.50042
    X4        2.16583  -0.00009   0.00000  -0.03385  -0.03509   2.13074
    Y4        1.63055   0.00010   0.00000  -0.01771  -0.02025   1.61030
    Z4        3.58018   0.00004   0.00000   0.03144   0.03389   3.61407
    X5        2.04268  -0.00004   0.00000   0.01820   0.01733   2.06001
    Y5        3.55989  -0.00043   0.00000  -0.01067  -0.01307   3.54682
    Z5        5.53067   0.00020   0.00000  -0.00729  -0.00497   5.52570
    X6        4.50760   0.00049   0.00000   0.01351   0.01306   4.52067
    Y6        3.99588   0.00059   0.00000   0.01078   0.00882   4.00470
    Z6        7.02246  -0.00002   0.00000  -0.01058  -0.00910   7.01336
    X7        6.65933   0.00024   0.00000  -0.00008  -0.00118   6.65815
    Y7        5.14806   0.00004   0.00000   0.00816   0.00635   5.15441
    Z7        5.44292   0.00022   0.00000   0.02808   0.02878   5.47170
    X8        3.99222   0.00040   0.00000  -0.00762  -0.00739   3.98483
    Y8        5.87502   0.00043   0.00000   0.01109   0.00929   5.88431
    Z8        9.86746   0.00002   0.00000  -0.02261  -0.02110   9.84636
    X9        1.64358  -0.00031   0.00000  -0.01693  -0.01617   1.62740
    Y9        4.84293   0.00060   0.00000  -0.00949  -0.01149   4.83144
    Z9       11.05462   0.00020   0.00000  -0.01533  -0.01298  11.04164
   X10        6.32284   0.00050   0.00000   0.02925   0.02992   6.35276
   Y10        6.05946   0.00177   0.00000  -0.04942  -0.05080   6.00865
   Z10       11.23789   0.00001   0.00000   0.01571   0.01644  11.25432
   X11        3.39780   0.00065   0.00000   0.00208   0.00157   3.39937
   Y11        8.78165  -0.00185   0.00000   0.02991   0.02794   8.80960
   Z11        8.76816   0.00215   0.00000  -0.02365  -0.02219   8.74597
   X12        4.97709   0.00110   0.00000  -0.00039  -0.00081   4.97628
   Y12       10.86098  -0.00035   0.00000  -0.01196  -0.01363  10.84734
   Z12        9.77538  -0.00074   0.00000   0.02466   0.02545   9.80083
   X13        4.65609  -0.00031   0.00000   0.02489   0.02363   4.67971
   Y13       13.10854   0.00123   0.00000   0.07463   0.07279  13.18133
   Z13        8.17196  -0.00080   0.00000  -0.03698  -0.03628   8.13567
   X14        2.12191  -0.00088   0.00000  -0.02477  -0.02629   2.09562
   Y14       14.10156  -0.00167   0.00000  -0.10061  -0.10283  13.99872
   Z14        7.65481  -0.00027   0.00000   0.00197   0.00344   7.65825
   X15        0.47007  -0.00111   0.00000  -0.05241  -0.05391   0.41616
   Y15       11.87183  -0.00230   0.00000  -0.01139  -0.01389  11.85794
   Z15        6.85613  -0.00036   0.00000   0.00778   0.00996   6.86609
   X16        0.63262  -0.00079   0.00000   0.02106   0.02043   0.65305
   Y16        9.55712   0.00101   0.00000   0.02433   0.02200   9.57912
   Z16        8.56992   0.00293   0.00000   0.07786   0.08015   8.65007
   X17        1.02457   0.00030   0.00000   0.00737   0.00611   1.03068
   Y17       16.02342   0.00320   0.00000  -0.00736  -0.00959  16.01383
   Z17        9.26741  -0.00316   0.00000  -0.03885  -0.03719   9.23021
   X18        0.90669  -0.00194   0.00000  -0.02515  -0.02538   0.88131
   Y18       15.32617   0.00070   0.00000   0.02082   0.01880  15.34498
   Z18       12.12731  -0.00009   0.00000   0.03382   0.03558  12.16288
   X19        2.29730   0.00017   0.00000  -0.02585  -0.02756   2.26974
   Y19       18.54884  -0.00065   0.00000  -0.03441  -0.03651  18.51233
   Z19        8.85447  -0.00027   0.00000  -0.02329  -0.02224   8.83223
   X20        2.45697   0.00090   0.00000   0.04212   0.03942   2.49639
   Y20       19.29222  -0.00049   0.00000  -0.00264  -0.00493  19.28729
   Z20        6.07783   0.00007   0.00000   0.02571   0.02662   6.10445
   X21        2.98789  -0.00015   0.00000  -0.03923  -0.04165   2.94624
   Y21       -1.03202   0.00044   0.00000   0.01996   0.01715  -1.01487
   Z21       -0.96349  -0.00041   0.00000  -0.06165  -0.05926  -1.02275
   X22        3.01950   0.00002   0.00000   0.01172   0.00968   3.02918
   Y22       -4.33977   0.00027   0.00000  -0.04131  -0.04412  -4.38389
   Z22       -1.16324   0.00007   0.00000  -0.03492  -0.03228  -1.19552
   X23        5.53362  -0.00037   0.00000   0.00824   0.00651   5.54013
   Y23       -2.82237   0.00019   0.00000  -0.01679  -0.01915  -2.84153
   Z23        0.37101  -0.00028   0.00000   0.00217   0.00387   0.37488
   X24        0.04478  -0.00012   0.00000   0.01517   0.01408   0.05887
   Y24       -2.90152  -0.00017   0.00000   0.00650   0.00359  -2.89793
   Z24        2.31149   0.00007   0.00000  -0.00263   0.00085   2.31235
   X25        2.50426   0.00013   0.00000   0.00227   0.00180   2.50606
   Y25       -4.81506  -0.00056   0.00000   0.02573   0.02323  -4.79182
   Z25        3.48837  -0.00019   0.00000   0.00069   0.00353   3.49189
   X26        1.75871   0.00023   0.00000  -0.00451  -0.00453   1.75418
   Y26       -1.23326   0.00052   0.00000  -0.01991  -0.02229  -1.25554
   Z26        6.26125   0.00018   0.00000  -0.01531  -0.01251   6.24874
   X27        4.84837  -0.00048   0.00000  -0.00020  -0.00065   4.84772
   Y27       -1.12919  -0.00004   0.00000  -0.01292  -0.01500  -1.14419
   Z27        4.97697  -0.00006   0.00000   0.00171   0.00350   4.98047
   X28        3.30071   0.00002   0.00000   0.02163   0.01984   3.32055
   Y28        2.15808  -0.00029   0.00000   0.02875   0.02625   2.18433
   Z28        2.19239   0.00011   0.00000  -0.02226  -0.02025   2.17214
   X29        1.46143   0.00022   0.00000   0.01798   0.01658   1.47802
   Y29        5.33731  -0.00012   0.00000  -0.00491  -0.00745   5.32986
   Z29        4.63049  -0.00020   0.00000  -0.00461  -0.00225   4.62824
   X30        0.56566   0.00018   0.00000  -0.00871  -0.00907   0.55659
   Y30        2.99388   0.00014   0.00000  -0.00608  -0.00855   2.98533
   Z30        6.88388   0.00023   0.00000  -0.01252  -0.00967   6.87421
   X31        5.16577  -0.00033   0.00000   0.00849   0.00855   5.17431
   Y31        2.21566   0.00005   0.00000   0.01105   0.00924   2.22490
   Z31        7.87533   0.00006   0.00000  -0.02403  -0.02262   7.85272
   X32        6.07595   0.00032   0.00000  -0.00193  -0.00352   6.07242
   Y32        6.95149  -0.00002   0.00000   0.00367   0.00172   6.95321
   Z32        4.65752   0.00017   0.00000  -0.01478  -0.01404   4.64348
   X33        8.35697  -0.00009   0.00000   0.00556   0.00479   8.36177
   Y33        5.43717  -0.00015   0.00000  -0.00691  -0.00841   5.42876
   Z33        6.57976  -0.00024   0.00000   0.00936   0.00948   6.58924
   X34        7.13741   0.00020   0.00000  -0.02146  -0.02290   7.11452
   Y34        3.88660  -0.00005   0.00000   0.00940   0.00753   3.89413
   Z34        3.91123   0.00008   0.00000   0.01483   0.01548   3.92671
   X35        4.33288  -0.00005   0.00000   0.01580   0.01595   4.34884
   Y35       11.30091   0.00004   0.00000   0.00154  -0.00007  11.30084
   Z35       11.73097   0.00051   0.00000   0.00058   0.00153  11.73251
   X36        6.93374   0.00097   0.00000  -0.03979  -0.04009   6.89365
   Y36       10.26882   0.00019   0.00000   0.00855   0.00713  10.27595
   Z36        9.90115   0.00019   0.00000   0.03883   0.03904   9.94019
   X37        5.58278   0.00031   0.00000  -0.01010  -0.01193   5.57085
   Y37       12.78730   0.00007   0.00000   0.04987   0.04798  12.83528
   Z37        6.25473  -0.00023   0.00000   0.00259   0.00302   6.25775
   X38        5.70066  -0.00062   0.00000   0.07994   0.07870   5.77935
   Y38       14.73942  -0.00072   0.00000   0.06873   0.06708  14.80651
   Z38        8.93401   0.00086   0.00000  -0.09884  -0.09864   8.83538
   X39        0.96639  -0.00047   0.00000   0.05770   0.05567   1.02206
   Y39       11.36143   0.00018   0.00000  -0.00083  -0.00340  11.35803
   Z39        4.99132  -0.00079   0.00000   0.03843   0.04045   5.03177
   X40       -1.51317  -0.00067   0.00000  -0.06778  -0.06938  -1.58254
   Y40       12.57318   0.00019   0.00000  -0.03346  -0.03622  12.53696
   Z40        6.84234   0.00001   0.00000  -0.00560  -0.00282   6.83952
   X41       -0.35034  -0.00001   0.00000   0.06908   0.06835  -0.28198
   Y41        7.95104   0.00092   0.00000   0.04632   0.04380   7.99484
   Z41        7.68973   0.00026   0.00000   0.02624   0.02896   7.71869
   X42       -0.10031   0.00028   0.00000  -0.06026  -0.06033  -0.16064
   Y42        9.84472  -0.00007   0.00000   0.06117   0.05889   9.90361
   Z42       10.46669   0.00041   0.00000   0.02869   0.03122  10.49791
   X43       -0.97736   0.00039   0.00000   0.01130   0.00983  -0.96753
   Y43       16.14599   0.00003   0.00000  -0.02668  -0.02922  16.11677
   Z43        8.63472   0.00007   0.00000   0.01416   0.01645   8.65117
   X44        2.81140   0.00000   0.00000  -0.05204  -0.05200   2.75940
   Y44       15.24012   0.00002   0.00000  -0.01622  -0.01793  15.22219
   Z44       12.96054  -0.00016   0.00000  -0.01182  -0.01067  12.94987
   X45       -0.05751   0.00005   0.00000  -0.00691  -0.00705  -0.06457
   Y45       16.93069   0.00004   0.00000   0.02552   0.02346  16.95415
   Z45       13.09039   0.00005   0.00000  -0.01560  -0.01367  13.07672
   X46       -0.06646  -0.00014   0.00000  -0.00039  -0.00028  -0.06674
   Y46       13.63388   0.00016   0.00000  -0.03844  -0.04055  13.59333
   Z46       12.53263  -0.00037   0.00000  -0.01278  -0.01057  12.52205
   X47        1.26436  -0.00018   0.00000   0.01451   0.01295   1.27731
   Y47       19.92655   0.00007   0.00000   0.02667   0.02453  19.95108
   Z47        9.92662   0.00021   0.00000  -0.02734  -0.02608   9.90054
   X48        4.23486  -0.00015   0.00000   0.01210   0.01068   4.24554
   Y48       18.45711   0.00026   0.00000  -0.00703  -0.00881  18.44830
   Z48        9.70372  -0.00010   0.00000   0.00884   0.00925   9.71297
   X49        0.57685   0.00017   0.00000   0.00852   0.00552   0.58237
   Y49       19.34286  -0.00017   0.00000   0.01487   0.01226  19.35512
   Z49        5.19831   0.00010   0.00000  -0.00154  -0.00002   5.19830
   X50        3.31497  -0.00010   0.00000   0.01238   0.00937   3.32434
   Y50       21.16181  -0.00004   0.00000   0.00483   0.00262  21.16443
   Z50        5.86310   0.00002   0.00000   0.00444   0.00493   5.86803
   X51        3.60824  -0.00002   0.00000   0.01902   0.01613   3.62438
   Y51       17.94477   0.00005   0.00000  -0.00912  -0.01136  17.93341
   Z51        4.98322   0.00000   0.00000   0.00835   0.00901   4.99223
         Item               Value     Threshold  Converged?
 Maximum Force            0.061331     0.000450     NO 
 RMS     Force            0.014360     0.000300     NO 
 Maximum Displacement     0.102832     0.001800     NO 
 RMS     Displacement     0.028783     0.001200     NO 
 Predicted change in Energy=-9.983471D-02
 GradGradGradGradGradGradGradGradGradGradGradGradGradGradGradGradGradGrad

 Stoichiometry    C14H31N3O2S
 Framework group  C1[X(C14H31N3O2S)]
 Deg. of freedom   147
 Full point group                 C1      NOp   1
 Largest Abelian subgroup         C1      NOp   1
 Largest concise Abelian subgroup C1      NOp   1
                         Standard orientation:                         
 ---------------------------------------------------------------------
 Center     Atomic      Atomic             Coordinates (Angstroms)
 Number     Number       Type             X           Y           Z
 ---------------------------------------------------------------------
      1          6           0        6.594339   -1.992158   -0.348196
      2          6           0        6.230962   -0.902330    0.655798
      3          6           0        4.919172   -0.181923    0.364073
      4          7           0        3.769162   -1.071961    0.439674
      5          6           0        2.490107   -0.421415    0.564844
      6          6           0        2.105507    0.568155   -0.551759
      7          6           0        1.837198   -0.074350   -1.904647
      8         16           0        0.695371    1.618637   -0.077198
      9          8           0        0.962089    2.047847    1.341034
     10          8           0        0.488474    2.605037   -1.132572
     11          7           0       -0.626073    0.577423   -0.108891
     12          6           0       -1.768137    1.009252   -0.933473
     13          6           0       -2.693322   -0.186060   -1.137886
     14          7           0       -3.114482   -0.879608    0.071430
     15          6           0       -1.965038   -1.180894    0.986269
     16          6           0       -1.088267    0.057000    1.231253
     17          6           0       -4.412118   -0.538482    0.660010
     18          6           0       -4.540165    0.980469    1.125107
     19          6           0       -5.569378   -0.932136   -0.193301
     20          6           0       -5.524500   -2.355501   -0.681358
     21          1           0        5.847608   -2.864657   -0.336845
     22          1           0        7.576425   -2.451492   -0.166014
     23          1           0        6.633560   -1.571434   -1.373822
     24          1           0        6.179780   -1.333160    1.659759
     25          1           0        7.029118   -0.156773    0.677013
     26          1           0        4.788468    0.588223    1.138402
     27          1           0        5.031918    0.356307   -0.599620
     28          1           0        3.744733   -1.707097   -0.376977
     29          1           0        1.712949   -1.197224    0.634209
     30          1           0        2.512699    0.124639    1.530123
     31          1           0        2.892482    1.324375   -0.664779
     32          1           0        1.041094   -0.818887   -1.826380
     33          1           0        1.578683    0.659996   -2.664539
     34          1           0        2.730178   -0.591585   -2.231106
     35          1           0       -2.320533    1.810726   -0.418470
     36          1           0       -1.439605    1.413131   -1.858289
     37          1           0       -2.194994   -0.941885   -1.788928
     38          1           0       -3.587060    0.067901   -1.731232
     39          1           0       -1.405224   -1.930628    0.496867
     40          1           0       -2.368200   -1.555597    1.958392
     41          1           0       -0.173431   -0.295089    1.710530
     42          1           0       -1.568485    0.811360    1.840666
     43          1           0       -4.437994   -1.101452    1.607299
     44          1           0       -4.540832    1.632716    0.264903
     45          1           0       -5.525879    1.072409    1.604085
     46          1           0       -3.743997    1.285398    1.773295
     47          1           0       -6.494916   -0.745738    0.339327
     48          1           0       -5.611223   -0.229409   -1.096603
     49          1           0       -5.478574   -3.063132    0.187119
     50          1           0       -6.407131   -2.634061   -1.262482
     51          1           0       -4.630465   -2.557897   -1.294325
 ---------------------------------------------------------------------
 Rotational constants (GHZ):           0.6326546           0.1237667           0.1154901
 Standard basis: 6-31G(d) (6D, 7F)
 There are   366 symmetry adapted cartesian basis functions of A   symmetry.
 There are   366 symmetry adapted basis functions of A   symmetry.
   366 basis functions,   708 primitive gaussians,   366 cartesian basis functions
    84 alpha electrons       84 beta electrons
       nuclear repulsion energy      1930.8229736519 Hartrees.
 NAtoms=   51 NActive=   51 NUniq=   51 SFac= 1.00D+00 NAtFMM=   60 NAOKFM=F Big=F
 Integral buffers will be    131072 words long.
 Raffenetti 2 integral format.
 Two-electron integral symmetry is turned on.
 Nuclear repulsion after empirical dispersion term =     1930.7217332665 Hartrees.
 One-electron integrals computed using PRISM.
 NBasis=   366 RedAO= T EigKep=  2.48D-03  NBF=   366
 NBsUse=   366 1.00D-06 EigRej= -1.00D+00 NBFU=   366
 Initial guess from the checkpoint file:  "JID_10045.chk"
 B after Tr=     0.000000    0.000000   -0.000000
         Rot=    1.000000    0.000037    0.000005   -0.000027 Ang=   0.01 deg.
 ExpMin= 1.17D-01 ExpMax= 2.19D+04 ExpMxC= 3.30D+03 IAcc=2 IRadAn=         4 AccDes= 0.00D+00
 Harris functional with IExCor=  402 and IRadAn=       4 diagonalized for initial guess.
 HarFok:  IExCor=  402 AccDes= 0.00D+00 IRadAn=         4 IDoV= 1 UseB2=F ITyADJ=14
 ICtDFT=  3500011 ScaDFX=  1.000000  1.000000  1.000000  1.000000
 FoFCou: FMM=F IPFlag=           0 FMFlag=      100000 FMFlg1=           0
         NFxFlg=           0 DoJE=T BraDBF=F KetDBF=T FulRan=T
         wScrn=  0.000000 ICntrl=       500 IOpCl=  0 I1Cent=   200000004 NGrid=           0
         NMat0=    1 NMatS0=      1 NMatT0=    0 NMatD0=    1 NMtDS0=    0 NMtDT0=    0
 Petite list used in FoFCou.
 Requested convergence on RMS density matrix=1.00D-08 within  32 cycles.
 Requested convergence on MAX density matrix=1.00D-06.
 Requested convergence on             energy=1.00D-06.
 No special actions if energy rises.
 Integral accuracy reduced to 1.0D-05 until final iterations.
 Initial convergence to 1.0D-05 achieved.  Increase integral accuracy.
