 Entering Gaussian System, Link 0=g16
 Initial command:
 /apps/brussel/CO7/skylake/software/Gaussian/G16.A.03-intel-2017b/g16/l1.exe "/scratch/brussel/102/vsc10255/Gau-97589.inp" -scrdir="/scratch/brussel/102/vsc10255/"
 Entering Link 1 = /apps/brussel/CO7/skylake/software/Gaussian/G16.A.03-intel-2017b/g16/l1.exe.bin PID=     97591.
  
 Copyright (c) 1988,1990,1992,1993,1995,1998,2003,2009,2016,
            Gaussian, Inc.  All Rights Reserved.
  
 This is part of the Gaussian(R) 16 program.  It is based on
 the Gaussian(R) 09 system (copyright 2009, Gaussian, Inc.),
 the Gaussian(R) 03 system (copyright 2003, Gaussian, Inc.),
 the Gaussian(R) 98 system (copyright 1998, Gaussian, Inc.),
 the Gaussian(R) 94 system (copyright 1995, Gaussian, Inc.),
 the Gaussian 92(TM) system (copyright 1992, Gaussian, Inc.),
 the Gaussian 90(TM) system (copyright 1990, Gaussian, Inc.),
 the Gaussian 88(TM) system (copyright 1988, Gaussian, Inc.),
 the Gaussian 86(TM) system (copyright 1986, Carnegie Mellon
 University), and the Gaussian 82(TM) system (copyright 1983,
 Carnegie Mellon University). Gaussian is a federally registered
 trademark of Gaussian, Inc.
  
 This software contains proprietary and confidential information,
 including trade secrets, belonging to Gaussian, Inc.
  
 This software is provided under written license and may be
 used, copied, transmitted, or stored only in accord with that
 written license.
  
 The following legend is applicable only to US Government
 contracts under FAR:
  
                    RESTRICTED RIGHTS LEGEND
  
 Use, reproduction and disclosure by the US Government is
 subject to restrictions as set forth in subparagraphs (a)
 and (c) of the Commercial Computer Software - Restricted
 Rights clause in FAR 52.227-19.
  
 Gaussian, Inc.
 340 Quinnipiac St., Bldg. 40, Wallingford CT 06492
  
  
 ---------------------------------------------------------------
 Warning -- This program may not be used in any manner that
 competes with the business of Gaussian, Inc. or will provide
 assistance to any competitor of Gaussian, Inc.  The licensee
 of this program is prohibited from giving any competitor of
 Gaussian, Inc. access to this program.  By using this program,
 the user acknowledges that Gaussian, Inc. is engaged in the
 business of creating and licensing software in the field of
 computational chemistry and represents and warrants to the
 licensee that it is not a competitor of Gaussian, Inc. and that
 it will not use this program in any manner prohibited above.
 ---------------------------------------------------------------
  

 Cite this work as:
 Gaussian 16, Revision A.03,
 M. J. Frisch, G. W. Trucks, H. B. Schlegel, G. E. Scuseria, 
 M. A. Robb, J. R. Cheeseman, G. Scalmani, V. Barone, 
 G. A. Petersson, H. Nakatsuji, X. Li, M. Caricato, A. V. Marenich, 
 J. Bloino, B. G. Janesko, R. Gomperts, B. Mennucci, H. P. Hratchian, 
 J. V. Ortiz, A. F. Izmaylov, J. L. Sonnenberg, D. Williams-Young, 
 F. Ding, F. Lipparini, F. Egidi, J. Goings, B. Peng, A. Petrone, 
 T. Henderson, D. Ranasinghe, V. G. Zakrzewski, J. Gao, N. Rega, 
 G. Zheng, W. Liang, M. Hada, M. Ehara, K. Toyota, R. Fukuda, 
 J. Hasegawa, M. Ishida, T. Nakajima, Y. Honda, O. Kitao, H. Nakai, 
 T. Vreven, K. Throssell, J. A. Montgomery, Jr., J. E. Peralta, 
 F. Ogliaro, M. J. Bearpark, J. J. Heyd, E. N. Brothers, K. N. Kudin, 
 V. N. Staroverov, T. A. Keith, R. Kobayashi, J. Normand, 
 K. Raghavachari, A. P. Rendell, J. C. Burant, S. S. Iyengar, 
 J. Tomasi, M. Cossi, J. M. Millam, M. Klene, C. Adamo, R. Cammi, 
 J. W. Ochterski, R. L. Martin, K. Morokuma, O. Farkas, 
 J. B. Foresman, and D. J. Fox, Gaussian, Inc., Wallingford CT, 2016.
 
 ******************************************
 Gaussian 16:  ES64L-G16RevA.03 25-Dec-2016
                23-Feb-2021 
 ******************************************
 %chk=JID_5612.chk
 %mem=8GB
 %nprocshared=4
 Will use up to    4 processors via shared memory.
 ----------------------------------------------------------------------
 # opt=(cartesian,calcfc) freq B3LYP/6-31G(d) empiricaldispersion=gd3bj
  scf=xqc
 ----------------------------------------------------------------------
 1/10=4,18=10,26=3,38=1/1,3;
 2/12=2,17=6,18=5,29=2,40=1/2;
 3/5=1,6=6,7=1,11=2,25=1,30=1,71=2,74=-5,124=41,140=1/1,2,3;
 4//1;
 5/5=2,8=3,13=1,38=5/2,8;
 8/6=4,10=90,11=11/1;
 11/6=1,8=1,9=11,15=111,16=1/1,2,10;
 10/6=1,13=1/2;
 6/7=2,8=2,9=2,10=2,28=1/1;
 7/7=1,10=1,18=20,25=1/1,2,3,16;
 1/10=4,18=10,26=3/3(2);
 2/29=1/2;
 99/12=1/99;
 2/29=1/2;
 3/5=1,6=6,7=1,11=2,25=1,30=1,71=1,74=-5,124=41/1,2,3;
 4/5=5,16=3,69=1/1;
 5/5=2,8=3,13=1,38=5/2,8;
 7/7=1/1,2,3,16;
 1/18=10,26=3/3(-5);
 2/29=1/2;
 6/7=2,8=2,9=2,10=2,19=2,28=1/1;
 99/9=1,12=1/99;
 -------------------------------
 CID_150749444_JID_5612_neutraal
 -------------------------------
 Symbolic Z-matrix:
 Charge =  0 Multiplicity = 1
 C                     1.344    -0.225     0.036 
 C                     0.76579   0.95139  -0.43373 
 C                    -0.62557   1.07758  -0.47952 
 C                    -1.45891   0.03217  -0.05352 
 C                    -0.85902  -1.14416   0.4209 
 C                     0.53265  -1.27299   0.46336 
 C                    -2.91319   0.15675  -0.10104 
 C                    -3.9621   -0.54333   0.46426 
 C                    -5.15515   0.06819   0.00594 
 C                    -4.76833   1.10424  -0.81702 
 O                    -3.41005   1.16735  -0.87732 
 O                    -5.37802   2.03029  -1.55228 
 N                    -6.76551   1.84782  -1.46128 
 N                    -7.38248   2.65375  -2.18082 
 N                    -7.9553    3.38794  -2.83893 
 H                     2.42582  -0.32452   0.06885 
 H                     1.39484   1.773    -0.76644 
 H                    -1.05523   2.00636  -0.84955 
 H                    -1.46731  -1.98163   0.75293 
 H                     0.98142  -2.19353   0.82771 
 H                    -3.87979  -1.39165   1.12864 
 H                    -6.17197  -0.21181   0.23963 
 

 GradGradGradGradGradGradGradGradGradGradGradGradGradGradGradGradGradGrad
 Berny optimization.
 Initialization pass.
 No Z-matrix variables, so optimization will use Cartesian coordinates.
 Trust Radius=3.00D-01 FncErr=1.00D-07 GrdErr=1.00D-06 EigMax=2.50D+02 EigMin=1.00D-04
 Number of steps in this run=     76 maximum allowed number of steps=    132.
 GradGradGradGradGradGradGradGradGradGradGradGradGradGradGradGradGradGrad

 ---------------------------------------------------------------------------------------------------
                            Z-MATRIX (ANGSTROMS AND DEGREES)
   CD    Cent   Atom    N1       Length/X        N2       Alpha/Y        N3        Beta/Z          J
 ---------------------------------------------------------------------------------------------------
      1      1  C        0   1.344000         -0.225000          0.036000
      2      2  C        0   0.765790          0.951390         -0.433730
      3      3  C        0  -0.625570          1.077580         -0.479520
      4      4  C        0  -1.458910          0.032170         -0.053520
      5      5  C        0  -0.859020         -1.144160          0.420900
      6      6  C        0   0.532650         -1.272990          0.463360
      7      7  C        0  -2.913190          0.156750         -0.101040
      8      8  C        0  -3.962100         -0.543330          0.464260
      9      9  C        0  -5.155150          0.068190          0.005940
     10     10  C        0  -4.768330          1.104240         -0.817020
     11     11  O        0  -3.410050          1.167350         -0.877320
     12     12  O        0  -5.378020          2.030290         -1.552280
     13     13  N        0  -6.765510          1.847820         -1.461280
     14     14  N        0  -7.382480          2.653750         -2.180820
     15     15  N        0  -7.955300          3.387940         -2.838930
     16     16  H        0   2.425820         -0.324520          0.068850
     17     17  H        0   1.394840          1.773000         -0.766440
     18     18  H        0  -1.055230          2.006360         -0.849550
     19     19  H        0  -1.467310         -1.981630          0.752930
     20     20  H        0   0.981420         -2.193530          0.827710
     21     21  H        0  -3.879790         -1.391650          1.128640
     22     22  H        0  -6.171970         -0.211810          0.239630
 ---------------------------------------------------------------------------------------------------
                         Z-Matrix orientation:                         
 ---------------------------------------------------------------------
 Center     Atomic      Atomic             Coordinates (Angstroms)
 Number     Number       Type             X           Y           Z
 ---------------------------------------------------------------------
      1          6           0        1.344000   -0.225000    0.036000
      2          6           0        0.765790    0.951390   -0.433730
      3          6           0       -0.625570    1.077580   -0.479520
      4          6           0       -1.458910    0.032170   -0.053520
      5          6           0       -0.859020   -1.144160    0.420900
      6          6           0        0.532650   -1.272990    0.463360
      7          6           0       -2.913190    0.156750   -0.101040
      8          6           0       -3.962100   -0.543330    0.464260
      9          6           0       -5.155150    0.068190    0.005940
     10          6           0       -4.768330    1.104240   -0.817020
     11          8           0       -3.410050    1.167350   -0.877320
     12          8           0       -5.378020    2.030290   -1.552280
     13          7           0       -6.765510    1.847820   -1.461280
     14          7           0       -7.382480    2.653750   -2.180820
     15          7           0       -7.955300    3.387940   -2.838930
     16          1           0        2.425820   -0.324520    0.068850
     17          1           0        1.394840    1.773000   -0.766440
     18          1           0       -1.055230    2.006360   -0.849550
     19          1           0       -1.467310   -1.981630    0.752930
     20          1           0        0.981420   -2.193530    0.827710
     21          1           0       -3.879790   -1.391650    1.128640
     22          1           0       -6.171970   -0.211810    0.239630
 ---------------------------------------------------------------------
                    Distance matrix (angstroms):
                    1          2          3          4          5
     1  C    0.000000
     2  C    1.392432   0.000000
     3  C    2.416957   1.397821   0.000000
     4  C    2.816106   2.436968   1.403144   0.000000
     5  C    2.417912   2.785988   2.408606   1.403102   0.000000
     6  C    1.392555   2.409770   2.784901   2.436579   1.398265
     7  C    4.276468   3.778496   2.494871   1.460380   2.486846
     8  C    5.332864   5.039198   3.827597   2.620163   3.161010
     9  C    6.505829   6.002573   4.666008   3.696894   4.483159
    10  C    6.313090   5.549483   4.156570   3.561534   4.676586
    11  O    5.037240   4.204884   2.814184   2.402962   3.679159
    12  O    7.265984   6.337317   4.964298   4.647385   5.864464
    13  N    8.503093   7.653752   6.265460   5.782593   6.883398
    14  N    9.452669   8.505566   7.143848   6.818121   7.984272
    15  N   10.382463   9.369054   8.039249   7.824499   9.029043
    16  H    1.086884   2.153191   3.402584   3.902990   3.403810
    17  H    2.153717   1.086942   2.155919   3.417987   3.872917
    18  H    3.394035   2.145223   1.088192   2.166575   3.402693
    19  H    3.391637   3.872661   3.403854   2.169291   1.087022
    20  H    2.152529   3.395328   3.871877   3.418409   2.157288
    21  H    5.462867   5.432518   4.390128   3.047200   3.112426
    22  H    7.518740   7.066750   5.739534   4.728467   5.397182
                    6          7          8          9         10
     6  C    0.000000
     7  C    3.773131   0.000000
     8  C    4.553590   1.381987   0.000000
     9  C    5.861661   2.246257   1.416821   0.000000
    10  C    5.949032   2.202705   2.237448   1.378511   0.000000
    11  O    4.826755   1.367769   2.242994   2.243585   1.361082
    12  O    7.064735   3.419304   3.562974   2.515464   1.330375
    13  N    8.167425   4.421577   4.157452   2.813019   2.226367
    14  N    9.222812   5.525853   5.377431   4.053152   3.330873
    15  N   10.231065   6.584793   6.504736   5.191808   4.411370
    16  H    2.153909   5.363349   6.403885   7.591395   7.387957
    17  H    3.396150   4.649101   5.964630   6.812145   6.199553
    18  H    3.872884   2.726415   4.083737   4.614944   3.821255
    19  H    2.141462   2.718916   2.894134   4.284848   4.783730
    20  H    1.086986   4.642669   5.224332   6.591523   6.829352
    21  H    4.463889   2.200902   1.080658   2.240119   3.287030
    22  H    6.791766   3.297202   2.245861   1.080247   2.195154
                   11         12         13         14         15
    11  O    0.000000
    12  O    2.252364   0.000000
    13  N    3.473206   1.402393   0.000000
    14  N    4.437195   2.191261   1.244152   0.000000
    15  N    5.425701   3.184502   2.384426   1.140292   0.000000
    16  H    6.097400   8.311023   9.567701  10.494468  11.401982
    17  H    4.844179   6.823150   8.190221   8.934066   9.712279
    18  H    2.499977   4.379602   5.745141   6.498114   7.312822
    19  H    4.043270   6.058312   6.902053   8.067396   9.155750
    20  H    5.786852   7.996717   9.032547  10.124337  11.156255
    21  H    3.285272   4.598010   5.052646   6.291790   7.429393
    22  H    3.282965   2.977971   2.736322   3.941490   5.061225
                   16         17         18         19         20
    16  H    0.000000
    17  H    2.481979   0.000000
    18  H    4.288842   2.462561   0.000000
    19  H    4.286075   4.959600   4.317617   0.000000
    20  H    2.480999   4.294833   4.959861   2.459019   0.000000
    21  H    6.482487   6.436463   4.841265   2.511831   4.936085
    22  H    8.600225   7.887221   5.682220   5.052679   7.446076
                   21         22
    21  H    0.000000
    22  H    2.726986   0.000000
 Stoichiometry    C10H7N3O2
 Framework group  C1[X(C10H7N3O2)]
 Deg. of freedom    60
 Full point group                 C1      NOp   1
 Largest Abelian subgroup         C1      NOp   1
 Largest concise Abelian subgroup C1      NOp   1
                         Standard orientation:                         
 ---------------------------------------------------------------------
 Center     Atomic      Atomic             Coordinates (Angstroms)
 Number     Number       Type             X           Y           Z
 ---------------------------------------------------------------------
      1          6           0        4.653526   -0.803541    0.110329
      2          6           0        3.619952   -1.694114   -0.168005
      3          6           0        2.301043   -1.236198   -0.236532
      4          6           0        1.996272    0.118034   -0.031628
      5          6           0        3.050721    1.001901    0.243343
      6          6           0        4.369953    0.544216    0.316112
      7          6           0        0.620230    0.602406   -0.099472
      8          6           0        0.039749    1.851880   -0.207837
      9          6           0       -1.362956    1.652619   -0.197954
     10          6           0       -1.560616    0.293507   -0.079464
     11          8           0       -0.361118   -0.347727   -0.028804
     12          8           0       -2.606295   -0.525002    0.001128
     13          7           0       -3.785104    0.234605   -0.009501
     14          7           0       -4.793644   -0.481485    0.124569
     15          7           0       -5.722861   -1.130668    0.248601
     16          1           0        5.678790   -1.159880    0.166678
     17          1           0        3.836452   -2.746660   -0.331461
     18          1           0        1.509646   -1.950039   -0.456266
     19          1           0        2.858192    2.057595    0.416720
     20          1           0        5.174579    1.241030    0.536491
     21          1           0        0.562198    2.794577   -0.286532
     22          1           0       -2.136539    2.403775   -0.263267
 ---------------------------------------------------------------------
 Rotational constants (GHZ):           2.2724322           0.2393052           0.2176816
 Standard basis: 6-31G(d) (6D, 7F)
 There are   239 symmetry adapted cartesian basis functions of A   symmetry.
 There are   239 symmetry adapted basis functions of A   symmetry.
   239 basis functions,   448 primitive gaussians,   239 cartesian basis functions
    52 alpha electrons       52 beta electrons
       nuclear repulsion energy       861.7562644458 Hartrees.
 NAtoms=   22 NActive=   22 NUniq=   22 SFac= 1.00D+00 NAtFMM=   60 NAOKFM=F Big=F
 Integral buffers will be    131072 words long.
 Raffenetti 2 integral format.
 Two-electron integral symmetry is turned on.
 Nuclear repulsion after empirical dispersion term =      861.7141622910 Hartrees.
 One-electron integrals computed using PRISM.
 NBasis=   239 RedAO= T EigKep=  4.52D-04  NBF=   239
 NBsUse=   239 1.00D-06 EigRej= -1.00D+00 NBFU=   239
 ExpMin= 1.61D-01 ExpMax= 5.48D+03 ExpMxC= 8.25D+02 IAcc=3 IRadAn=         5 AccDes= 0.00D+00
 Harris functional with IExCor=  402 and IRadAn=       5 diagonalized for initial guess.
 HarFok:  IExCor=  402 AccDes= 0.00D+00 IRadAn=         5 IDoV= 1 UseB2=F ITyADJ=14
 ICtDFT=  3500011 ScaDFX=  1.000000  1.000000  1.000000  1.000000
 FoFCou: FMM=F IPFlag=           0 FMFlag=      100000 FMFlg1=           0
         NFxFlg=           0 DoJE=T BraDBF=F KetDBF=T FulRan=T
         wScrn=  0.000000 ICntrl=       500 IOpCl=  0 I1Cent=   200000004 NGrid=           0
         NMat0=    1 NMatS0=      1 NMatT0=    0 NMatD0=    1 NMtDS0=    0 NMtDT0=    0
 Petite list used in FoFCou.
 Keep R1 ints in memory in canonical form, NReq=418198904.
 Requested convergence on RMS density matrix=1.00D-08 within  32 cycles.
 Requested convergence on MAX density matrix=1.00D-06.
 Requested convergence on             energy=1.00D-06.
 No special actions if energy rises.
 Integral accuracy reduced to 1.0D-05 until final iterations.
 EnCoef did     2 forward-backward iterations
 Failed to achieve initial convergence to 1.0D-08 in 10 cycles.
 Switch to full accuracy anyway.
 SCF Done:  E(RB3LYP) =  -699.854522568     A.U. after   19 cycles
            NFock= 19  Conv=0.41D-08     -V/T= 2.0093
 QCSCF skips out because SCF is already converged.
 DoSCS=F DFT=T ScalE2(SS,OS)=  1.000000  1.000000
 Range of M.O.s used for correlation:     1   239
 NBasis=   239 NAE=    52 NBE=    52 NFC=     0 NFV=     0
 NROrb=    239 NOA=    52 NOB=    52 NVA=   187 NVB=   187

 **** Warning!!: The smallest alpha delta epsilon is  0.95633479D-01

 Symmetrizing basis deriv contribution to polar:
 IMax=3 JMax=2 DiffMx= 0.00D+00
 G2DrvN: will do    23 centers at a time, making    1 passes.
 Calling FoFCou, ICntrl=  3107 FMM=F I1Cent=   0 AccDes= 0.00D+00.
 End of G2Drv F.D. properties file   721 does not exist.
 End of G2Drv F.D. properties file   722 does not exist.
 End of G2Drv F.D. properties file   788 does not exist.
          IDoAtm=1111111111111111111111
          Differentiating once with respect to nuclear coordinates.
 Keep R1 ints in memory in canonical form, NReq=418208117.
          There are    69 degrees of freedom in the 1st order CPHF.  IDoFFX=6 NUNeed=     0.
     63 vectors produced by pass  0 Test12= 1.41D-14 1.45D-09 XBig12= 1.35D-01 1.29D-01.
 AX will form    63 AO Fock derivatives at one time.
     63 vectors produced by pass  1 Test12= 1.41D-14 1.45D-09 XBig12= 5.70D-02 7.65D-02.
     63 vectors produced by pass  2 Test12= 1.41D-14 1.45D-09 XBig12= 1.36D-03 8.93D-03.
     63 vectors produced by pass  3 Test12= 1.41D-14 1.45D-09 XBig12= 6.07D-06 3.41D-04.
     63 vectors produced by pass  4 Test12= 1.41D-14 1.45D-09 XBig12= 1.39D-08 1.01D-05.
     57 vectors produced by pass  5 Test12= 1.41D-14 1.45D-09 XBig12= 1.21D-11 3.65D-07.
     24 vectors produced by pass  6 Test12= 1.41D-14 1.45D-09 XBig12= 1.06D-14 9.90D-09.
 InvSVY:  IOpt=1 It=  1 EMax= 5.55D-16
 Solved reduced A of dimension   396 with    69 vectors.
 End of Minotr F.D. properties file   721 does not exist.
 End of Minotr F.D. properties file   722 does not exist.
 End of Minotr F.D. properties file   788 does not exist.

 **********************************************************************

            Population analysis using the SCF density.

 **********************************************************************

 Orbital symmetries:
       Occupied  (A) (A) (A) (A) (A) (A) (A) (A) (A) (A) (A) (A)
                 (A) (A) (A) (A) (A) (A) (A) (A) (A) (A) (A) (A)
                 (A) (A) (A) (A) (A) (A) (A) (A) (A) (A) (A) (A)
                 (A) (A) (A) (A) (A) (A) (A) (A) (A) (A) (A) (A)
                 (A) (A) (A) (A)
       Virtual   (A) (A) (A) (A) (A) (A) (A) (A) (A) (A) (A) (A)
                 (A) (A) (A) (A) (A) (A) (A) (A) (A) (A) (A) (A)
                 (A) (A) (A) (A) (A) (A) (A) (A) (A) (A) (A) (A)
                 (A) (A) (A) (A) (A) (A) (A) (A) (A) (A) (A) (A)
                 (A) (A) (A) (A) (A) (A) (A) (A) (A) (A) (A) (A)
                 (A) (A) (A) (A) (A) (A) (A) (A) (A) (A) (A) (A)
                 (A) (A) (A) (A) (A) (A) (A) (A) (A) (A) (A) (A)
                 (A) (A) (A) (A) (A) (A) (A) (A) (A) (A) (A) (A)
                 (A) (A) (A) (A) (A) (A) (A) (A) (A) (A) (A) (A)
                 (A) (A) (A) (A) (A) (A) (A) (A) (A) (A) (A) (A)
                 (A) (A) (A) (A) (A) (A) (A) (A) (A) (A) (A) (A)
                 (A) (A) (A) (A) (A) (A) (A) (A) (A) (A) (A) (A)
                 (A) (A) (A) (A) (A) (A) (A) (A) (A) (A) (A) (A)
                 (A) (A) (A) (A) (A) (A) (A) (A) (A) (A) (A) (A)
                 (A) (A) (A) (A) (A) (A) (A) (A) (A) (A) (A) (A)
                 (A) (A) (A) (A) (A) (A) (A)
 The electronic state is 1-A.
 Alpha  occ. eigenvalues --  -19.26080 -19.22493 -14.54529 -14.46261 -14.45615
 Alpha  occ. eigenvalues --  -10.30797 -10.24294 -10.20426 -10.19195 -10.19094
 Alpha  occ. eigenvalues --  -10.19069 -10.18938 -10.18858 -10.18767 -10.18619
 Alpha  occ. eigenvalues --   -1.20516  -1.14961  -1.11129  -0.98423  -0.85571
 Alpha  occ. eigenvalues --   -0.80671  -0.78040  -0.74216  -0.72540  -0.66404
 Alpha  occ. eigenvalues --   -0.62514  -0.60352  -0.58057  -0.55821  -0.55249
 Alpha  occ. eigenvalues --   -0.55197  -0.52614  -0.49837  -0.48944  -0.48741
 Alpha  occ. eigenvalues --   -0.47241  -0.44757  -0.43461  -0.42462  -0.41894
 Alpha  occ. eigenvalues --   -0.41843  -0.40272  -0.38565  -0.36472  -0.35158
 Alpha  occ. eigenvalues --   -0.34801  -0.34142  -0.28957  -0.28612  -0.26107
 Alpha  occ. eigenvalues --   -0.24808  -0.19162
 Alpha virt. eigenvalues --   -0.09599  -0.02596  -0.01477   0.00075   0.04983
 Alpha virt. eigenvalues --    0.08606   0.09175   0.10160   0.11749   0.14136
 Alpha virt. eigenvalues --    0.14834   0.15795   0.17256   0.17778   0.18883
 Alpha virt. eigenvalues --    0.19490   0.20430   0.22590   0.24047   0.27806
 Alpha virt. eigenvalues --    0.29664   0.30783   0.33793   0.34406   0.37324
 Alpha virt. eigenvalues --    0.41536   0.44119   0.45364   0.48209   0.50133
 Alpha virt. eigenvalues --    0.51141   0.52847   0.53098   0.54457   0.55500
 Alpha virt. eigenvalues --    0.55841   0.56684   0.57753   0.57934   0.58952
 Alpha virt. eigenvalues --    0.59032   0.59404   0.60203   0.61094   0.61291
 Alpha virt. eigenvalues --    0.61787   0.62441   0.62832   0.64473   0.65151
 Alpha virt. eigenvalues --    0.66035   0.68143   0.69298   0.70366   0.71091
 Alpha virt. eigenvalues --    0.74730   0.74806   0.78131   0.80436   0.82034
 Alpha virt. eigenvalues --    0.82647   0.83382   0.83970   0.84926   0.85753
 Alpha virt. eigenvalues --    0.88452   0.90021   0.90532   0.91343   0.93113
 Alpha virt. eigenvalues --    0.94855   0.96623   0.97526   0.99406   1.01486
 Alpha virt. eigenvalues --    1.01543   1.03315   1.05359   1.06789   1.10157
 Alpha virt. eigenvalues --    1.13812   1.15959   1.16495   1.18911   1.21072
 Alpha virt. eigenvalues --    1.22195   1.24050   1.26360   1.29654   1.31790
 Alpha virt. eigenvalues --    1.33622   1.34598   1.36689   1.37562   1.40104
 Alpha virt. eigenvalues --    1.40917   1.41719   1.43709   1.44256   1.45870
 Alpha virt. eigenvalues --    1.46474   1.48099   1.48811   1.49610   1.51549
 Alpha virt. eigenvalues --    1.52780   1.55062   1.55935   1.60067   1.66576
 Alpha virt. eigenvalues --    1.72962   1.77212   1.78856   1.80031   1.81198
 Alpha virt. eigenvalues --    1.84184   1.84886   1.87503   1.89632   1.90590
 Alpha virt. eigenvalues --    1.92438   1.95961   1.97362   1.97751   1.98609
 Alpha virt. eigenvalues --    2.01654   2.04601   2.05337   2.05762   2.11382
 Alpha virt. eigenvalues --    2.12354   2.12661   2.13712   2.15105   2.16243
 Alpha virt. eigenvalues --    2.20503   2.22015   2.24518   2.27468   2.27936
 Alpha virt. eigenvalues --    2.30602   2.30826   2.33127   2.34218   2.37711
 Alpha virt. eigenvalues --    2.40021   2.48124   2.53367   2.54883   2.57373
 Alpha virt. eigenvalues --    2.58199   2.60348   2.62305   2.64633   2.66892
 Alpha virt. eigenvalues --    2.67149   2.70665   2.71547   2.73981   2.76307
 Alpha virt. eigenvalues --    2.80160   2.82945   2.85600   2.86542   2.92658
 Alpha virt. eigenvalues --    2.99286   3.01926   3.08564   3.16226   3.22421
 Alpha virt. eigenvalues --    3.33238   3.43975   3.51068   3.57015   4.01422
 Alpha virt. eigenvalues --    4.08308   4.10439   4.11698   4.14556   4.16897
 Alpha virt. eigenvalues --    4.24549   4.33078   4.34958   4.41575   4.57027
 Alpha virt. eigenvalues --    4.70634   4.77554
          Condensed to atoms (all electrons):
               1          2          3          4          5          6
     1  C    4.855636   0.548205  -0.036946  -0.033064  -0.038672   0.549364
     2  C    0.548205   4.870227   0.508649  -0.008951  -0.043495  -0.025254
     3  C   -0.036946   0.508649   5.049974   0.476415  -0.070442  -0.043995
     4  C   -0.033064  -0.008951   0.476415   4.737804   0.542957  -0.009831
     5  C   -0.038672  -0.043495  -0.070442   0.542957   5.004983   0.521801
     6  C    0.549364  -0.025254  -0.043995  -0.009831   0.521801   4.863300
     7  C    0.000872   0.004774  -0.040402   0.374688  -0.052082   0.006457
     8  C    0.000013  -0.000188   0.009601  -0.064991  -0.015990   0.000161
     9  C   -0.000000   0.000005  -0.000151   0.007626   0.000387  -0.000005
    10  C   -0.000000   0.000000   0.000203   0.001456   0.000005   0.000003
    11  O    0.000002   0.000284  -0.004355  -0.040419   0.002633  -0.000064
    12  O    0.000000  -0.000000  -0.000013  -0.000078   0.000000  -0.000000
    13  N   -0.000000   0.000000   0.000000  -0.000000  -0.000000   0.000000
    14  N   -0.000000  -0.000000   0.000000  -0.000000   0.000000  -0.000000
    15  N    0.000000   0.000000  -0.000000   0.000000   0.000000  -0.000000
    16  H    0.358600  -0.043590   0.004834   0.000626   0.004996  -0.043799
    17  H   -0.043123   0.358480  -0.038759   0.003201   0.000866   0.004649
    18  H    0.004754  -0.044814   0.357677  -0.040828   0.005787   0.000343
    19  H    0.004864   0.000296   0.006221  -0.039058   0.350510  -0.045495
    20  H   -0.042981   0.004635   0.000891   0.003257  -0.038779   0.357467
    21  H   -0.000000   0.000002  -0.000112  -0.004491   0.001706   0.000053
    22  H    0.000000  -0.000000  -0.000001  -0.000112   0.000001   0.000000
               7          8          9         10         11         12
     1  C    0.000872   0.000013  -0.000000  -0.000000   0.000002   0.000000
     2  C    0.004774  -0.000188   0.000005   0.000000   0.000284  -0.000000
     3  C   -0.040402   0.009601  -0.000151   0.000203  -0.004355  -0.000013
     4  C    0.374688  -0.064991   0.007626   0.001456  -0.040419  -0.000078
     5  C   -0.052082  -0.015990   0.000387   0.000005   0.002633   0.000000
     6  C    0.006457   0.000161  -0.000005   0.000003  -0.000064  -0.000000
     7  C    4.773266   0.535192  -0.016586  -0.095604   0.282732  -0.000555
     8  C    0.535192   5.081005   0.419696  -0.026018  -0.076272   0.004788
     9  C   -0.016586   0.419696   5.118043   0.490973  -0.079448  -0.071628
    10  C   -0.095604  -0.026018   0.490973   4.513376   0.336469   0.264404
    11  O    0.282732  -0.076272  -0.079448   0.336469   8.097533  -0.043783
    12  O   -0.000555   0.004788  -0.071628   0.264404  -0.043783   8.194772
    13  N    0.000098  -0.000069   0.007987  -0.045182   0.001221   0.082626
    14  N   -0.000008  -0.000006   0.000781   0.001181  -0.000081  -0.032618
    15  N    0.000000  -0.000000   0.000020   0.000184  -0.000000   0.001993
    16  H    0.000005  -0.000000   0.000000  -0.000000   0.000000  -0.000000
    17  H   -0.000172   0.000001  -0.000000  -0.000000  -0.000002   0.000000
    18  H   -0.012358   0.000133   0.000083  -0.000069   0.008623  -0.000002
    19  H   -0.011148   0.005517   0.000007  -0.000023   0.000018  -0.000000
    20  H   -0.000208   0.000000   0.000000  -0.000000   0.000000   0.000000
    21  H   -0.032845   0.360729  -0.037322   0.005345   0.003528  -0.000020
    22  H    0.004195  -0.034106   0.365949  -0.039072   0.003137  -0.003233
              13         14         15         16         17         18
     1  C   -0.000000  -0.000000   0.000000   0.358600  -0.043123   0.004754
     2  C    0.000000  -0.000000   0.000000  -0.043590   0.358480  -0.044814
     3  C    0.000000   0.000000  -0.000000   0.004834  -0.038759   0.357677
     4  C   -0.000000  -0.000000   0.000000   0.000626   0.003201  -0.040828
     5  C   -0.000000   0.000000   0.000000   0.004996   0.000866   0.005787
     6  C    0.000000  -0.000000  -0.000000  -0.043799   0.004649   0.000343
     7  C    0.000098  -0.000008   0.000000   0.000005  -0.000172  -0.012358
     8  C   -0.000069  -0.000006  -0.000000  -0.000000   0.000001   0.000133
     9  C    0.007987   0.000781   0.000020   0.000000  -0.000000   0.000083
    10  C   -0.045182   0.001181   0.000184  -0.000000  -0.000000  -0.000069
    11  O    0.001221  -0.000081  -0.000000   0.000000  -0.000002   0.008623
    12  O    0.082626  -0.032618   0.001993  -0.000000   0.000000  -0.000002
    13  N    6.901496   0.261550  -0.096801  -0.000000   0.000000  -0.000000
    14  N    0.261550   5.786245   0.542534  -0.000000   0.000000   0.000000
    15  N   -0.096801   0.542534   6.761298  -0.000000  -0.000000   0.000000
    16  H   -0.000000  -0.000000  -0.000000   0.602378  -0.005646  -0.000177
    17  H    0.000000   0.000000  -0.000000  -0.005646   0.594617  -0.005368
    18  H   -0.000000   0.000000   0.000000  -0.000177  -0.005368   0.582782
    19  H    0.000000   0.000000   0.000000  -0.000185   0.000016  -0.000155
    20  H   -0.000000   0.000000   0.000000  -0.005696  -0.000191   0.000016
    21  H   -0.000007   0.000000  -0.000000  -0.000000   0.000000  -0.000009
    22  H    0.006311  -0.000120   0.000003  -0.000000   0.000000  -0.000000
              19         20         21         22
     1  C    0.004864  -0.042981  -0.000000   0.000000
     2  C    0.000296   0.004635   0.000002  -0.000000
     3  C    0.006221   0.000891  -0.000112  -0.000001
     4  C   -0.039058   0.003257  -0.004491  -0.000112
     5  C    0.350510  -0.038779   0.001706   0.000001
     6  C   -0.045495   0.357467   0.000053   0.000000
     7  C   -0.011148  -0.000208  -0.032845   0.004195
     8  C    0.005517   0.000000   0.360729  -0.034106
     9  C    0.000007   0.000000  -0.037322   0.365949
    10  C   -0.000023  -0.000000   0.005345  -0.039072
    11  O    0.000018   0.000000   0.003528   0.003137
    12  O   -0.000000   0.000000  -0.000020  -0.003233
    13  N    0.000000  -0.000000  -0.000007   0.006311
    14  N    0.000000   0.000000   0.000000  -0.000120
    15  N    0.000000   0.000000  -0.000000   0.000003
    16  H   -0.000185  -0.005696  -0.000000  -0.000000
    17  H    0.000016  -0.000191   0.000000   0.000000
    18  H   -0.000155   0.000016  -0.000009  -0.000000
    19  H    0.604098  -0.005517   0.001980   0.000001
    20  H   -0.005517   0.596606  -0.000001   0.000000
    21  H    0.001980  -0.000001   0.555747  -0.001790
    22  H    0.000001   0.000000  -0.001790   0.543070
 Mulliken charges:
               1
     1  C   -0.127523
     2  C   -0.129265
     3  C   -0.179289
     4  C    0.093792
     5  C   -0.177170
     6  C   -0.135153
     7  C    0.279687
     8  C   -0.199196
     9  C   -0.206416
    10  C    0.592369
    11  O   -0.491757
    12  O   -0.396654
    13  N   -0.119230
    14  N    0.440542
    15  N   -0.209231
    16  H    0.127656
    17  H    0.131431
    18  H    0.143582
    19  H    0.128052
    20  H    0.130503
    21  H    0.147508
    22  H    0.155766
 Sum of Mulliken charges =  -0.00000
 Mulliken charges with hydrogens summed into heavy atoms:
               1
     1  C    0.000133
     2  C    0.002166
     3  C   -0.035708
     4  C    0.093792
     5  C   -0.049119
     6  C   -0.004651
     7  C    0.279687
     8  C   -0.051689
     9  C   -0.050650
    10  C    0.592369
    11  O   -0.491757
    12  O   -0.396654
    13  N   -0.119230
    14  N    0.440542
    15  N   -0.209231
 APT charges:
               1
     1  C   -0.365983
     2  C   -0.466742
     3  C   -0.584230
     4  C   -0.717495
     5  C   -0.526897
     6  C   -0.374286
     7  C   -0.204177
     8  C   -0.404791
     9  C   -0.535057
    10  C    0.155388
    11  O   -0.479093
    12  O    0.019436
    13  N   -1.025243
    14  N   -0.993177
    15  N    2.045133
    16  H    0.987204
    17  H    0.681576
    18  H    0.230506
    19  H    0.413777
    20  H    0.860897
    21  H    0.599502
    22  H    0.683752
 Sum of APT charges =  -0.00000
 APT charges with hydrogens summed into heavy atoms:
               1
     1  C    0.621221
     2  C    0.214834
     3  C   -0.353724
     4  C   -0.717495
     5  C   -0.113120
     6  C    0.486611
     7  C   -0.204177
     8  C    0.194711
     9  C    0.148694
    10  C    0.155388
    11  O   -0.479093
    12  O    0.019436
    13  N   -1.025243
    14  N   -0.993177
    15  N    2.045133
 Electronic spatial extent (au):  <R**2>=           4554.6565
 Charge=             -0.0000 electrons
 Dipole moment (field-independent basis, Debye):
    X=             -0.0023    Y=              0.7579    Z=             -0.0375  Tot=              0.7588
 Quadrupole moment (field-independent basis, Debye-Ang):
   XX=            -76.5775   YY=            -77.6193   ZZ=            -87.0095
   XY=             -1.6987   XZ=              0.9559   YZ=              1.0376
 Traceless Quadrupole moment (field-independent basis, Debye-Ang):
   XX=              3.8246   YY=              2.7828   ZZ=             -6.6073
   XY=             -1.6987   XZ=              0.9559   YZ=              1.0376
 Octapole moment (field-independent basis, Debye-Ang**2):
  XXX=             13.8397  YYY=             -0.3512  ZZZ=              1.2541  XYY=              4.5945
  XXY=             10.9443  XXZ=              3.2611  XZZ=            -21.6918  YZZ=             -4.0573
  YYZ=             -2.3391  XYZ=              2.9622
 Hexadecapole moment (field-independent basis, Debye-Ang**3):
 XXXX=          -5181.0074 YYYY=           -616.1255 ZZZZ=           -102.2888 XXXY=           -116.7648
 XXXZ=             50.6777 YYYX=             -1.0066 YYYZ=              2.4566 ZZZX=             -5.6327
 ZZZY=              0.6684 XXYY=           -965.3953 XXZZ=           -936.3752 YYZZ=           -138.1803
 XXYZ=             20.7799 YYXZ=             -0.2131 ZZXY=             12.9560
 N-N= 8.617141622910D+02 E-N=-3.352278635891D+03  KE= 6.933876760279D+02
  Exact polarizability:   0.000   0.000   0.000   0.000   0.000   0.000
 Approx polarizability: 353.922  13.880 240.513   4.289   4.335  74.280
 Calling FoFJK, ICntrl=    100147 FMM=F ISym2X=0 I1Cent= 0 IOpClX= 0 NMat=1 NMatS=1 NMatT=0.
 ***** Axes restored to original set *****
 -------------------------------------------------------------------
 Center     Atomic                   Forces (Hartrees/Bohr)
 Number     Number              X              Y              Z
 -------------------------------------------------------------------
      1        6           0.005506326    0.000142937    0.000044693
      2        6          -0.006273547   -0.000211041   -0.000432667
      3        6           0.005929183    0.006627619   -0.003041640
      4        6          -0.004232774    0.000037110    0.000910338
      5        6           0.006746528   -0.005940217    0.002672396
      6        6          -0.006985601    0.000611235    0.000748957
      7        6           0.004322933   -0.014664552    0.010714718
      8        6           0.017641438    0.005630089   -0.005565174
      9        6          -0.014882688    0.011736721   -0.009773454
     10        6           0.020721462   -0.034510152    0.028279546
     11        8          -0.015403078    0.013058285   -0.010663970
     12        8           0.003799122    0.027250297   -0.021061291
     13        7          -0.030873793   -0.014647788    0.011579011
     14        7           0.029227485    0.003615066   -0.002558390
     15        7          -0.010286608    0.001248515   -0.001078161
     16        1          -0.000212649   -0.000136539   -0.000020088
     17        1          -0.000925854   -0.000053831    0.000052880
     18        1          -0.001417253   -0.002870929    0.001039666
     19        1          -0.001795504    0.001485629   -0.001094321
     20        1          -0.001098963    0.000145208   -0.000048059
     21        1          -0.000227982    0.000661707    0.000005439
     22        1           0.000721818    0.000784632   -0.000710431
 -------------------------------------------------------------------
 Cartesian Forces:  Max     0.034510152 RMS     0.010968617

 GradGradGradGradGradGradGradGradGradGradGradGradGradGradGradGradGradGrad
 Berny optimization.
 Search for a local minimum.
 Step number   1 out of a maximum of   76
 All quantities printed in internal units (Hartrees-Bohrs-Radians)
 Second derivative matrix not updated -- analytic derivatives used.
 ITU=  0
     Eigenvalues ---   -0.02393  -0.00055   0.00015   0.00116   0.00215
     Eigenvalues ---    0.00590   0.01193   0.01496   0.01562   0.02156
     Eigenvalues ---    0.02389   0.02703   0.03020   0.03180   0.05085
     Eigenvalues ---    0.05369   0.05399   0.05742   0.06192   0.06428
     Eigenvalues ---    0.07123   0.08687   0.08792   0.09384   0.10395
     Eigenvalues ---    0.11292   0.13358   0.14619   0.18297   0.18499
     Eigenvalues ---    0.18589   0.20721   0.20912   0.23091   0.23269
     Eigenvalues ---    0.25967   0.28301   0.29428   0.33533   0.42382
     Eigenvalues ---    0.44362   0.53801   0.58463   0.66950   0.68436
     Eigenvalues ---    0.76717   0.80445   0.83139   0.86355   0.89045
     Eigenvalues ---    0.97114   1.00833   1.09748   1.10744   1.14106
     Eigenvalues ---    1.24124   1.26162   1.30313   1.35436   2.63833
 RFO step:  Lambda=-2.39257303D-02 EMin=-2.39254234D-02
 I=     1 Eig=   -2.39D-02 Dot1= -3.84D-05
 I=     1 Stepn= -6.00D-01 RXN=   6.00D-01 EDone=F
 I=     2 Eig=   -5.48D-04 Dot1=  1.06D-04
 I=     2 Stepn=  3.00D-01 RXN=   6.71D-01 EDone=F
 Mixed    2 eigenvectors in step.  Raw Step.Grad=  1.44D-04.
 RFO eigenvector is Hessian eigenvector with negative curvature.
 Taking step of  6.00D-01 in eigenvector direction(s).  Step.Grad= -2.66D-04.
 Linear search not attempted -- first point.
 Maximum step size (   0.300) exceeded in Quadratic search.
    -- Step size scaled by   0.500
 B after Tr=    -0.000015    0.002152    0.003057
         Rot=    1.000000   -0.000452    0.000187   -0.000128 Ang=  -0.06 deg.
 Variable       Old X    -DE/DX   Delta X   Delta X   Delta X     New X
                                 (Linear)    (Quad)   (Total)
    X1        2.53979   0.00551   0.00000  -0.00061  -0.00054   2.53926
    Y1       -0.42519   0.00014   0.00000  -0.00593  -0.00318  -0.42837
    Z1        0.06803   0.00004   0.00000  -0.00874  -0.00513   0.06290
    X2        1.44713  -0.00627   0.00000  -0.00040  -0.00056   1.44657
    Y2        1.79787  -0.00021   0.00000  -0.01038  -0.00710   1.79076
    Z2       -0.81963  -0.00043   0.00000  -0.01998  -0.01476  -0.83439
    X3       -1.18216   0.00593   0.00000  -0.00033  -0.00052  -1.18268
    Y3        2.03633   0.00663   0.00000  -0.00995  -0.00726   2.02907
    Z3       -0.90616  -0.00304   0.00000  -0.02021  -0.01577  -0.92193
    X4       -2.75694  -0.00423   0.00000  -0.00081  -0.00079  -2.75774
    Y4        0.06079   0.00004   0.00000  -0.00498  -0.00343   0.05736
    Z4       -0.10114   0.00091   0.00000  -0.00890  -0.00683  -0.10797
    X5       -1.62331   0.00675   0.00000  -0.00098  -0.00074  -1.62406
    Y5       -2.16215  -0.00594   0.00000  -0.00030   0.00071  -2.16144
    Z5        0.79539   0.00267   0.00000   0.00326   0.00376   0.79914
    X6        1.00656  -0.00699   0.00000  -0.00109  -0.00082   1.00574
    Y6       -2.40560   0.00061   0.00000  -0.00086   0.00076  -2.40485
    Z6        0.87562   0.00075   0.00000   0.00289   0.00414   0.87977
    X7       -5.50513   0.00432   0.00000  -0.00054  -0.00055  -5.50568
    Y7        0.29621  -0.01466   0.00000  -0.00309  -0.00217   0.29404
    Z7       -0.19094   0.01071   0.00000  -0.00595  -0.00469  -0.19563
    X8       -7.48728   0.01764   0.00000   0.00000  -0.00007  -7.48735
    Y8       -1.02674   0.00563   0.00000  -0.01210  -0.01263  -1.03938
    Z8        0.87732  -0.00557   0.00000  -0.01509  -0.01578   0.86155
    X9       -9.74182  -0.01488   0.00000   0.00045   0.00039  -9.74143
    Y9        0.12886   0.01174   0.00000   0.01408   0.01371   0.14258
    Z9        0.01122  -0.00977   0.00000   0.02062   0.02016   0.03139
   X10       -9.01084   0.02072   0.00000  -0.00125  -0.00125  -9.01208
   Y10        2.08671  -0.03451   0.00000   0.03553   0.03673   2.12344
   Z10       -1.54394   0.02828   0.00000   0.04667   0.04828  -1.49567
   X11       -6.44406  -0.01540   0.00000  -0.00124  -0.00121  -6.44527
   Y11        2.20597   0.01306   0.00000   0.01783   0.01981   2.22578
   Z11       -1.65789  -0.01066   0.00000   0.02226   0.02491  -1.63298
   X12      -10.16298   0.00380   0.00000  -0.00736  -0.00736 -10.17034
   Y12        3.83669   0.02725   0.00000   0.12985   0.13190   3.96859
   Z12       -2.93338  -0.02106   0.00000   0.17053   0.17337  -2.76002
   X13      -12.78496  -0.03087   0.00000   0.00315   0.00336 -12.78160
   Y13        3.49187  -0.01465   0.00000  -0.11453  -0.11303   3.37884
   Z13       -2.76142   0.01158   0.00000  -0.13409  -0.13276  -2.89418
   X14      -13.95087   0.02923   0.00000   0.00525   0.00551 -13.94536
   Y14        5.01486   0.00362   0.00000  -0.02222  -0.01988   4.99498
   Z14       -4.12115  -0.00256   0.00000  -0.03164  -0.02929  -4.15044
   X15      -15.03334  -0.01029   0.00000   0.00668   0.00704 -15.02630
   Y15        6.40228   0.00125   0.00000  -0.00836  -0.00519   6.39709
   Z15       -5.36480  -0.00108   0.00000  -0.01747  -0.01426  -5.37906
   X16        4.58414  -0.00021   0.00000  -0.00061  -0.00051   4.58362
   Y16       -0.61325  -0.00014   0.00000  -0.00494  -0.00173  -0.61499
   Z16        0.13011  -0.00002   0.00000  -0.00629  -0.00207   0.12803
   X17        2.63587  -0.00093   0.00000  -0.00053  -0.00085   2.63501
   Y17        3.35048  -0.00005   0.00000  -0.01214  -0.00798   3.34250
   Z17       -1.44836   0.00005   0.00000  -0.02467  -0.01761  -1.46597
   X18       -1.99410  -0.00142   0.00000  -0.00000  -0.00037  -1.99447
   Y18        3.79147  -0.00287   0.00000  -0.01179  -0.00868   3.78279
   Z18       -1.60542   0.00104   0.00000  -0.02515  -0.01942  -1.62484
   X19       -2.77281  -0.00180   0.00000  -0.00055  -0.00015  -2.77296
   Y19       -3.74474   0.00149   0.00000   0.00323   0.00338  -3.74136
   Z19        1.42283  -0.00109   0.00000   0.01287   0.01151   1.43434
   X20        1.85462  -0.00110   0.00000  -0.00119  -0.00074   1.85388
   Y20       -4.14517   0.00015   0.00000   0.00278   0.00399  -4.14118
   Z20        1.56415  -0.00005   0.00000   0.01213   0.01214   1.57629
   X21       -7.33174  -0.00023   0.00000   0.00035   0.00023  -7.33151
   Y21       -2.62984   0.00066   0.00000  -0.02763  -0.02924  -2.65908
   Z21        2.13282   0.00001   0.00000  -0.03496  -0.03705   2.09577
   X22      -11.66333   0.00072   0.00000   0.00059   0.00050 -11.66284
   Y22       -0.40026   0.00078   0.00000   0.01179   0.01054  -0.38973
   Z22        0.45284  -0.00071   0.00000   0.01879   0.01713   0.46997
         Item               Value     Threshold  Converged?
 Maximum Force            0.034510     0.000450     NO 
 RMS     Force            0.010969     0.000300     NO 
 Maximum Displacement     0.173367     0.001800     NO 
 RMS     Displacement     0.036862     0.001200     NO 
 Predicted change in Energy=-9.308729D-04
 GradGradGradGradGradGradGradGradGradGradGradGradGradGradGradGradGradGrad

                          Input orientation:                          
 ---------------------------------------------------------------------
 Center     Atomic      Atomic             Coordinates (Angstroms)
 Number     Number       Type             X           Y           Z
 ---------------------------------------------------------------------
      1          6           0        1.343716   -0.226683    0.033287
      2          6           0        0.765493    0.947632   -0.441542
      3          6           0       -0.625846    1.073737   -0.487863
      4          6           0       -1.459331    0.030353   -0.057133
      5          6           0       -0.859413   -1.143783    0.422889
      6          6           0        0.532217   -1.272589    0.465553
      7          6           0       -2.913482    0.155601   -0.103522
      8          6           0       -3.962137   -0.550016    0.455911
      9          6           0       -5.154943    0.075447    0.016609
     10          6           0       -4.768990    1.123676   -0.791473
     11          8           0       -3.410691    1.177832   -0.864137
     12          8           0       -5.381913    2.100088   -1.460538
     13          7           0       -6.763732    1.788007   -1.531532
     14          7           0       -7.379565    2.643231   -2.196318
     15          7           0       -7.951573    3.385196   -2.846474
     16          1           0        2.425549   -0.325437    0.067752
     17          1           0        1.394390    1.768776   -0.775757
     18          1           0       -1.055428    2.001767   -0.859829
     19          1           0       -1.467388   -1.979844    0.759021
     20          1           0        0.981031   -2.191420    0.834135
     21          1           0       -3.879666   -1.407125    1.109035
     22          1           0       -6.171707   -0.206235    0.248696
 ---------------------------------------------------------------------
                    Distance matrix (angstroms):
                    1          2          3          4          5
     1  C    0.000000
     2  C    1.392415   0.000000
     3  C    2.416995   1.397810   0.000000
     4  C    2.816259   2.437008   1.403166   0.000000
     5  C    2.417983   2.785960   2.408613   1.403181   0.000000
     6  C    1.392589   2.409693   2.784845   2.436621   1.398230
     7  C    4.276516   3.778416   2.494788   1.460272   2.486907
     8  C    5.332469   5.039727   3.828592   2.619939   3.159199
     9  C    6.505700   6.001847   4.665169   3.696624   4.483655
    10  C    6.314180   5.548328   4.154553   3.562085   4.679832
    11  O    5.038097   4.203819   2.812078   2.403283   3.681759
    12  O    7.271827   6.336964   4.961821   4.651882   5.875628
    13  N    8.499315   7.653989   6.266824   5.779263   6.875765
    14  N    9.450036   8.502721   7.141068   6.815601   7.982111
    15  N   10.379841   9.365504   8.035681   7.822059   9.027686
    16  H    1.086878   2.153108   3.402559   3.903136   3.403938
    17  H    2.153828   1.086963   2.155763   3.417931   3.872903
    18  H    3.394044   2.145208   1.088181   2.166548   3.402685
    19  H    3.391544   3.872625   3.404008   2.169577   1.087022
    20  H    2.152462   3.395210   3.871819   3.418479   2.157291
    21  H    5.462087   5.433845   4.392278   3.047017   3.108387
    22  H    7.518537   7.066299   5.739113   4.728213   5.397203
                    6          7          8          9         10
     6  C    0.000000
     7  C    3.773118   0.000000
     8  C    4.552079   1.382222   0.000000
     9  C    5.861958   2.246109   1.416679   0.000000
    10  C    5.951890   2.203033   2.237905   1.378673   0.000000
    11  O    4.828992   1.367738   2.243229   2.243520   1.361318
    12  O    7.075431   3.422817   3.565332   2.516475   1.332931
    13  N    8.160054   4.419094   4.155144   2.813859   2.228906
    14  N    9.220386   5.523947   5.376798   4.054565   3.331327
    15  N   10.229330   6.583041   6.504402   5.193536   4.412068
    16  H    2.154077   5.363393   6.403408   7.591258   7.389153
    17  H    3.396188   4.648870   5.965415   6.810945   6.197068
    18  H    3.872810   2.726296   4.085550   4.613554   3.816577
    19  H    2.141204   2.719429   2.891376   4.286427   4.789200
    20  H    1.086985   4.642730   5.222276   6.592209   6.833389
    21  H    4.460592   2.201345   1.080745   2.240034   3.287519
    22  H    6.791667   3.297122   2.245735   1.080286   2.195047
                   11         12         13         14         15
    11  O    0.000000
    12  O    2.256539   0.000000
    13  N    3.472840   1.418400   0.000000
    14  N    4.435545   2.197041   1.246033   0.000000
    15  N    5.424180   3.189902   2.385592   1.140354   0.000000
    16  H    6.098355   8.317170   9.563852  10.491867  11.399394
    17  H    4.842090   6.818869   8.193078   8.931123   9.708126
    18  H    2.495226   4.369096   5.751663   6.495568   7.308725
    19  H    4.047466   6.074190   6.891632   8.066020   9.155758
    20  H    5.789923   8.010595   9.022948  10.122108  11.155131
    21  H    3.285627   4.600000   5.049684   6.291267   7.429187
    22  H    3.282871   2.977311   2.738012   3.944169   5.064225
                   16         17         18         19         20
    16  H    0.000000
    17  H    2.482041   0.000000
    18  H    4.288763   2.462307   0.000000
    19  H    4.286009   4.959583   4.317824   0.000000
    20  H    2.481102   4.294854   4.959787   2.458692   0.000000
    21  H    6.481516   6.438513   4.844924   2.503916   4.931233
    22  H    8.599986   7.886444   5.681585   5.053388   7.446164
                   21         22
    21  H    0.000000
    22  H    2.726862   0.000000
 Stoichiometry    C10H7N3O2
 Framework group  C1[X(C10H7N3O2)]
 Deg. of freedom    60
 Full point group                 C1      NOp   1
 Largest Abelian subgroup         C1      NOp   1
 Largest concise Abelian subgroup C1      NOp   1
                         Standard orientation:                         
 ---------------------------------------------------------------------
 Center     Atomic      Atomic             Coordinates (Angstroms)
 Number     Number       Type             X           Y           Z
 ---------------------------------------------------------------------
      1          6           0        4.653052   -0.803382    0.118433
      2          6           0        3.618817   -1.695483   -0.152370
      3          6           0        2.299869   -1.237827   -0.221647
      4          6           0        1.995585    0.117789   -0.025202
      5          6           0        3.050794    1.003327    0.241772
      6          6           0        4.369987    0.545805    0.315598
      7          6           0        0.619772    0.602110   -0.095664
      8          6           0        0.040010    1.852585   -0.199228
      9          6           0       -1.362353    1.652129   -0.212499
     10          6           0       -1.561244    0.291749   -0.109790
     11          8           0       -0.361919   -0.348748   -0.042194
     12          8           0       -2.610066   -0.530854   -0.110307
     13          7           0       -3.781240    0.245368    0.083826
     14          7           0       -4.791453   -0.481341    0.146768
     15          7           0       -5.720585   -1.132472    0.261441
     16          1           0        5.678441   -1.159463    0.173980
     17          1           0        3.834874   -2.748777   -0.311683
     18          1           0        1.508260   -1.952559   -0.437637
     19          1           0        2.859193    2.060288    0.408320
     20          1           0        5.175191    1.243862    0.529836
     21          1           0        0.562792    2.796116   -0.265991
     22          1           0       -2.135656    2.403659   -0.277473
 ---------------------------------------------------------------------
 Rotational constants (GHZ):           2.2640248           0.2393740           0.2177345
 Standard basis: 6-31G(d) (6D, 7F)
 There are   239 symmetry adapted cartesian basis functions of A   symmetry.
 There are   239 symmetry adapted basis functions of A   symmetry.
   239 basis functions,   448 primitive gaussians,   239 cartesian basis functions
    52 alpha electrons       52 beta electrons
       nuclear repulsion energy       861.3380467326 Hartrees.
 NAtoms=   22 NActive=   22 NUniq=   22 SFac= 1.00D+00 NAtFMM=   60 NAOKFM=F Big=F
 Integral buffers will be    131072 words long.
 Raffenetti 2 integral format.
 Two-electron integral symmetry is turned on.
 Nuclear repulsion after empirical dispersion term =      861.2959407752 Hartrees.
 One-electron integrals computed using PRISM.
 NBasis=   239 RedAO= T EigKep=  4.52D-04  NBF=   239
 NBsUse=   239 1.00D-06 EigRej= -1.00D+00 NBFU=   239
 Initial guess from the checkpoint file:  "JID_5612.chk"
 B after Tr=     0.000000   -0.000000   -0.000000
         Rot=    1.000000    0.000128   -0.000011    0.000034 Ang=   0.02 deg.
 ExpMin= 1.61D-01 ExpMax= 5.48D+03 ExpMxC= 8.25D+02 IAcc=2 IRadAn=         4 AccDes= 0.00D+00
 Harris functional with IExCor=  402 and IRadAn=       4 diagonalized for initial guess.
 HarFok:  IExCor=  402 AccDes= 0.00D+00 IRadAn=         4 IDoV= 1 UseB2=F ITyADJ=14
 ICtDFT=  3500011 ScaDFX=  1.000000  1.000000  1.000000  1.000000
 FoFCou: FMM=F IPFlag=           0 FMFlag=      100000 FMFlg1=           0
         NFxFlg=           0 DoJE=T BraDBF=F KetDBF=T FulRan=T
         wScrn=  0.000000 ICntrl=       500 IOpCl=  0 I1Cent=   200000004 NGrid=           0
         NMat0=    1 NMatS0=      1 NMatT0=    0 NMatD0=    1 NMtDS0=    0 NMtDT0=    0
 Petite list used in FoFCou.
 Keep R1 ints in memory in canonical form, NReq=418198904.
 Requested convergence on RMS density matrix=1.00D-08 within  32 cycles.
 Requested convergence on MAX density matrix=1.00D-06.
 Requested convergence on             energy=1.00D-06.
 No special actions if energy rises.
 Integral accuracy reduced to 1.0D-05 until final iterations.
 Initial convergence to 1.0D-05 achieved.  Increase integral accuracy.
 SCF Done:  E(RB3LYP) =  -699.855324085     A.U. after   14 cycles
            NFock= 14  Conv=0.99D-08     -V/T= 2.0094
 QCSCF skips out because SCF is already converged.
 Calling FoFJK, ICntrl=      2127 FMM=F ISym2X=0 I1Cent= 0 IOpClX= 0 NMat=1 NMatS=1 NMatT=0.
 ***** Axes restored to original set *****
 -------------------------------------------------------------------
 Center     Atomic                   Forces (Hartrees/Bohr)
 Number     Number              X              Y              Z
 -------------------------------------------------------------------
      1        6           0.005483265    0.000190762    0.000098037
      2        6          -0.006285301   -0.000128522   -0.000286438
      3        6           0.005896392    0.006672217   -0.002938470
      4        6          -0.004159375   -0.000030318    0.000873528
      5        6           0.006736062   -0.005970678    0.002531134
      6        6          -0.006946225    0.000594024    0.000653059
      7        6           0.004274121   -0.014284470    0.010214706
      8        6           0.017204184    0.005379223   -0.005885468
      9        6          -0.014374590    0.011617435   -0.009452653
     10        6           0.020281842   -0.031718922    0.027466112
     11        8          -0.014899844    0.012709355   -0.010046588
     12        8          -0.001845904    0.024198198   -0.016141180
     13        7          -0.024483508   -0.013482755    0.005835013
     14        7           0.027680265    0.002515682   -0.002570408
     15        7          -0.009611783    0.001806397    0.000548566
     16        1          -0.000215230   -0.000178637   -0.000058645
     17        1          -0.000919735   -0.000111533   -0.000024305
     18        1          -0.001405786   -0.002915620    0.000964115
     19        1          -0.001802218    0.001503058   -0.001060217
     20        1          -0.001114904    0.000145972   -0.000027388
     21        1          -0.000218409    0.000523619   -0.000265695
     22        1           0.000726682    0.000965512   -0.000426816
 -------------------------------------------------------------------
 Cartesian Forces:  Max     0.031718922 RMS     0.010036110

 GradGradGradGradGradGradGradGradGradGradGradGradGradGradGradGradGradGrad
 Berny optimization.
 Search for a local minimum.
 Step number   2 out of a maximum of   76
 All quantities printed in internal units (Hartrees-Bohrs-Radians)
 Update second derivatives using D2CorN and points    1    2
 ITU=  0  0
     Eigenvalues ---   -0.01939  -0.00015   0.00015   0.00116   0.00215
     Eigenvalues ---    0.00590   0.01193   0.01497   0.01563   0.02157
     Eigenvalues ---    0.02391   0.02703   0.03019   0.03180   0.05084
     Eigenvalues ---    0.05369   0.05399   0.05743   0.06192   0.06431
     Eigenvalues ---    0.07122   0.08686   0.08793   0.09383   0.10395
     Eigenvalues ---    0.11293   0.13358   0.14621   0.18296   0.18499
     Eigenvalues ---    0.18589   0.20721   0.20910   0.23090   0.23269
     Eigenvalues ---    0.25963   0.28301   0.29426   0.33534   0.42384
     Eigenvalues ---    0.44365   0.53809   0.58469   0.66949   0.68436
     Eigenvalues ---    0.76717   0.80446   0.83140   0.86355   0.89040
     Eigenvalues ---    0.97113   1.00832   1.09748   1.10744   1.14106
     Eigenvalues ---    1.24124   1.26162   1.30313   1.35432   2.63833
 RFO step:  Lambda=-2.05422426D-02 EMin=-1.93905885D-02
 I=     1 Eig=   -1.94D-02 Dot1= -2.20D-03
 I=     1 Stepn= -6.00D-01 RXN=   6.00D-01 EDone=F
 I=     2 Eig=   -1.48D-04 Dot1= -4.56D-05
 I=     2 Stepn= -3.00D-01 RXN=   6.71D-01 EDone=F
 Mixed    2 eigenvectors in step.  Raw Step.Grad=  2.24D-03.
 RFO eigenvector is Hessian eigenvector with negative curvature.
 Taking step of  6.00D-01 in eigenvector direction(s).  Step.Grad= -7.38D-03.
 Skip linear search -- no minimum in search direction.
 Maximum step size (   0.300) exceeded in Quadratic search.
    -- Step size scaled by   0.500
 B after Tr=    -0.000231    0.000418    0.000060
         Rot=    1.000000   -0.000786    0.000331   -0.000303 Ang=  -0.10 deg.
 Variable       Old X    -DE/DX   Delta X   Delta X   Delta X     New X
                                 (Linear)    (Quad)   (Total)
    X1        2.53926   0.00548   0.00000   0.00036   0.00035   2.53960
    Y1       -0.42837   0.00019   0.00000  -0.00623  -0.00436  -0.43273
    Z1        0.06290   0.00010   0.00000  -0.00456  -0.00350   0.05941
    X2        1.44657  -0.00629   0.00000   0.00322   0.00246   1.44903
    Y2        1.79076  -0.00013   0.00000  -0.00441  -0.00180   1.78896
    Z2       -0.83439  -0.00029   0.00000  -0.00364   0.00019  -0.83420
    X3       -1.18268   0.00590   0.00000   0.00357   0.00271  -1.17996
    Y3        2.02907   0.00667   0.00000   0.00083   0.00198   2.03105
    Z3       -0.92193  -0.00294   0.00000   0.00129   0.00376  -0.91817
    X4       -2.75774  -0.00416   0.00000   0.00127   0.00107  -2.75667
    Y4        0.05736  -0.00003   0.00000   0.00458   0.00350   0.06086
    Z4       -0.10797   0.00087   0.00000   0.00556   0.00389  -0.10408
    X5       -1.62406   0.00674   0.00000  -0.00174  -0.00120  -1.62525
    Y5       -2.16144  -0.00597   0.00000   0.00295   0.00113  -2.16031
    Z5        0.79914   0.00253   0.00000   0.00533   0.00092   0.80007
    X6        1.00574  -0.00695   0.00000  -0.00199  -0.00135   1.00440
    Y6       -2.40485   0.00059   0.00000  -0.00234  -0.00270  -2.40754
    Z6        0.87977   0.00065   0.00000   0.00038  -0.00268   0.87709
    X7       -5.50568   0.00427   0.00000   0.00139   0.00110  -5.50458
    Y7        0.29404  -0.01428   0.00000   0.00820   0.00558   0.29962
    Z7       -0.19563   0.01021   0.00000   0.00675   0.00364  -0.19199
    X8       -7.48735   0.01720   0.00000   0.00162   0.00143  -7.48593
    Y8       -1.03938   0.00538   0.00000   0.02047   0.01497  -1.02441
    Z8        0.86155  -0.00589   0.00000   0.02297   0.01647   0.87801
    X9       -9.74143  -0.01437   0.00000   0.00250   0.00214  -9.73929
    Y9        0.14258   0.01162   0.00000   0.01883   0.01327   0.15584
    Z9        0.03139  -0.00945   0.00000   0.02081   0.01466   0.04605
   X10       -9.01208   0.02028   0.00000   0.00150   0.00097  -9.01112
   Y10        2.12344  -0.03172   0.00000   0.00718   0.00448   2.12792
   Z10       -1.49567   0.02747   0.00000   0.00556   0.00300  -1.49267
   X11       -6.44527  -0.01490   0.00000   0.00179   0.00131  -6.44396
   Y11        2.22578   0.01271   0.00000  -0.00854  -0.00943   2.21635
   Z11       -1.63298  -0.01005   0.00000  -0.01475  -0.01547  -1.64845
   X12      -10.17034  -0.00185   0.00000  -0.00530  -0.00614 -10.17648
   Y12        3.96859   0.02420   0.00000   0.02003   0.01857   3.98716
   Z12       -2.76002  -0.01614   0.00000   0.02977   0.02935  -2.73067
   X13      -12.78160  -0.02448   0.00000   0.00919   0.00906 -12.77254
   Y13        3.37884  -0.01348   0.00000  -0.16107  -0.16353   3.21532
   Z13       -2.89418   0.00584   0.00000  -0.19631  -0.19966  -3.09384
   X14      -13.94536   0.02768   0.00000  -0.00368  -0.00419 -13.94954
   Y14        4.99498   0.00252   0.00000   0.00222   0.00072   4.99570
   Z14       -4.15044  -0.00257   0.00000   0.00035  -0.00098  -4.15142
   X15      -15.02630  -0.00961   0.00000  -0.01516  -0.01582 -15.04211
   Y15        6.39709   0.00181   0.00000   0.08323   0.08283   6.47992
   Z15       -5.37906   0.00055   0.00000   0.10058   0.10085  -5.27820
   X16        4.58362  -0.00022   0.00000   0.00014   0.00020   4.58383
   Y16       -0.61499  -0.00018   0.00000  -0.00949  -0.00648  -0.62147
   Z16        0.12803  -0.00006   0.00000  -0.00730  -0.00518   0.12286
   X17        2.63501  -0.00092   0.00000   0.00500   0.00372   2.63873
   Y17        3.34250  -0.00011   0.00000  -0.00570  -0.00137   3.34113
   Z17       -1.46597  -0.00002   0.00000  -0.00348   0.00358  -1.46239
   X18       -1.99447  -0.00141   0.00000   0.00536   0.00391  -1.99056
   Y18        3.78279  -0.00292   0.00000   0.00297   0.00473   3.78752
   Z18       -1.62484   0.00096   0.00000   0.00440   0.00909  -1.61575
   X19       -2.77296  -0.00180   0.00000  -0.00390  -0.00282  -2.77578
   Y19       -3.74136   0.00150   0.00000   0.00462   0.00110  -3.74026
   Z19        1.43434  -0.00106   0.00000   0.00546  -0.00220   1.43214
   X20        1.85388  -0.00111   0.00000  -0.00386  -0.00262   1.85126
   Y20       -4.14118   0.00015   0.00000  -0.00397  -0.00491  -4.14609
   Z20        1.57629  -0.00003   0.00000  -0.00152  -0.00675   1.56954
   X21       -7.33151  -0.00022   0.00000   0.00196   0.00191  -7.32960
   Y21       -2.65908   0.00052   0.00000   0.03591   0.02853  -2.63055
   Z21        2.09577  -0.00027   0.00000   0.04256   0.03363   2.12940
   X22      -11.66284   0.00073   0.00000   0.00211   0.00179 -11.66105
   Y22       -0.38973   0.00097   0.00000   0.02061   0.01320  -0.37653
   Z22        0.46997  -0.00043   0.00000   0.02165   0.01340   0.48336
         Item               Value     Threshold  Converged?
 Maximum Force            0.031719     0.000450     NO 
 RMS     Force            0.010036     0.000300     NO 
 Maximum Displacement     0.199660     0.001800     NO 
 RMS     Displacement     0.036775     0.001200     NO 
 Predicted change in Energy=-1.704212D-03
 GradGradGradGradGradGradGradGradGradGradGradGradGradGradGradGradGradGrad

                          Input orientation:                          
 ---------------------------------------------------------------------
 Center     Atomic      Atomic             Coordinates (Angstroms)
 Number     Number       Type             X           Y           Z
 ---------------------------------------------------------------------
      1          6           0        1.343900   -0.228991    0.031437
      2          6           0        0.766796    0.946677   -0.441440
      3          6           0       -0.624410    1.074784   -0.485876
      4          6           0       -1.458765    0.032203   -0.055075
      5          6           0       -0.860047   -1.143187    0.423377
      6          6           0        0.531505   -1.274017    0.464135
      7          6           0       -2.912897    0.158554   -0.101597
      8          6           0       -3.961382   -0.542094    0.464625
      9          6           0       -5.153811    0.082468    0.024366
     10          6           0       -4.768478    1.126048   -0.789888
     11          8           0       -3.409997    1.172842   -0.872325
     12          8           0       -5.385162    2.109916   -1.445007
     13          7           0       -6.758936    1.701473   -1.637188
     14          7           0       -7.381781    2.643610   -2.196838
     15          7           0       -7.959944    3.429028   -2.793103
     16          1           0        2.425656   -0.328869    0.065013
     17          1           0        1.396358    1.768049   -0.773862
     18          1           0       -1.053358    2.004269   -0.855019
     19          1           0       -1.468881   -1.979260    0.757856
     20          1           0        0.979646   -2.194016    0.830563
     21          1           0       -3.878658   -1.392027    1.126831
     22          1           0       -6.170762   -0.199251    0.255785
 ---------------------------------------------------------------------
                    Distance matrix (angstroms):
                    1          2          3          4          5
     1  C    0.000000
     2  C    1.392429   0.000000
     3  C    2.416958   1.397798   0.000000
     4  C    2.816139   2.436938   1.403108   0.000000
     5  C    2.418006   2.786048   2.408664   1.403183   0.000000
     6  C    1.392585   2.409754   2.784874   2.436589   1.398283
     7  C    4.276472   3.778462   2.494859   1.460353   2.486830
     8  C    5.332139   5.039153   3.827941   2.619732   3.159318
     9  C    6.505176   6.001452   4.664817   3.696242   4.483062
    10  C    6.314417   5.549130   4.155520   3.562393   4.679452
    11  O    5.038002   4.205046   2.813975   2.403385   3.680364
    12  O    7.275345   6.340888   4.965500   4.654610   5.877942
    13  N    8.495114   7.657426   6.273011   5.777660   6.865487
    14  N    9.452754   8.506486   7.144975   6.818263   7.983631
    15  N   10.388487   9.372747   8.042129   7.829467   9.036561
    16  H    1.086876   2.152981   3.402443   3.903015   3.404025
    17  H    2.153933   1.086970   2.155703   3.417827   3.872989
    18  H    3.394128   2.145346   1.088213   2.166405   3.402668
    19  H    3.391587   3.872683   3.403995   2.169549   1.087001
    20  H    2.152349   3.395181   3.871829   3.418517   2.157432
    21  H    5.461469   5.432242   4.390456   3.046508   3.109466
    22  H    7.518069   7.066045   5.738924   4.727909   5.396554
                    6          7          8          9         10
     6  C    0.000000
     7  C    3.773091   0.000000
     8  C    4.552114   1.382330   0.000000
     9  C    5.861422   2.245741   1.416260   0.000000
    10  C    5.951697   2.202945   2.237835   1.378605   0.000000
    11  O    4.827906   1.367446   2.243316   2.243626   1.361784
    12  O    7.078331   3.424128   3.564688   2.514583   1.333221
    13  N    8.149824   4.419350   4.156624   2.821058   2.238517
    14  N    9.222183   5.525980   5.378775   4.056728   3.333445
    15  N   10.238796   6.588846   6.509309   5.197305   4.416112
    16  H    2.154162   5.363347   6.403078   7.590730   7.389398
    17  H    3.396288   4.648881   5.964561   6.810511   6.198195
    18  H    3.872870   2.726205   4.084364   4.613063   3.818066
    19  H    2.141303   2.719209   2.892057   4.285726   4.788089
    20  H    1.086968   4.642780   5.222692   6.591785   6.832980
    21  H    4.461236   2.201371   1.080623   2.239550   3.287293
    22  H    6.791091   3.296882   2.245555   1.080329   2.194596
                   11         12         13         14         15
    11  O    0.000000
    12  O    2.259945   0.000000
    13  N    3.475609   1.446034   0.000000
    14  N    4.437630   2.199219   1.260463   0.000000
    15  N    5.429713   3.191696   2.400627   1.143104   0.000000
    16  H    6.098244   8.320860   9.559106  10.494638  11.408388
    17  H    4.844070   6.823219   8.201133   8.935725   9.714761
    18  H    2.499064   4.373073   5.766896   6.500628   7.313484
    19  H    4.044894   6.075461   6.875225   8.066197   9.164759
    20  H    5.788309   8.013291   9.008345  10.123302  11.165387
    21  H    3.285547   4.598643   5.050302   6.293252   7.434068
    22  H    3.282849   2.973570   2.746279   3.945097   5.065699
                   16         17         18         19         20
    16  H    0.000000
    17  H    2.481981   0.000000
    18  H    4.288768   2.462417   0.000000
    19  H    4.286168   4.959645   4.317700   0.000000
    20  H    2.481086   4.294856   4.959828   2.459001   0.000000
    21  H    6.480905   6.436187   4.841991   2.507591   4.932958
    22  H    8.599512   7.886175   5.681304   5.052544   7.445656
                   21         22
    21  H    0.000000
    22  H    2.726753   0.000000
 Stoichiometry    C10H7N3O2
 Framework group  C1[X(C10H7N3O2)]
 Deg. of freedom    60
 Full point group                 C1      NOp   1
 Largest Abelian subgroup         C1      NOp   1
 Largest concise Abelian subgroup C1      NOp   1
                         Standard orientation:                         
 ---------------------------------------------------------------------
 Center     Atomic      Atomic             Coordinates (Angstroms)
 Number     Number       Type             X           Y           Z
 ---------------------------------------------------------------------
      1          6           0        4.653779   -0.801933    0.124144
      2          6           0        3.620754   -1.695859   -0.145328
      3          6           0        2.301716   -1.239293   -0.219659
      4          6           0        1.996220    0.116933   -0.029826
      5          6           0        3.050210    1.004425    0.235477
      6          6           0        4.369544    0.547997    0.314388
      7          6           0        0.620002    0.599898   -0.103300
      8          6           0        0.040369    1.849306   -0.220950
      9          6           0       -1.361569    1.648733   -0.232409
     10          6           0       -1.560941    0.289593   -0.116044
     11          8           0       -0.361423   -0.349724   -0.033074
     12          8           0       -2.612088   -0.530407   -0.129054
     13          7           0       -3.774506    0.257587    0.215713
     14          7           0       -4.793501   -0.481015    0.145832
     15          7           0       -5.729099   -1.136008    0.194071
     16          1           0        5.679263   -1.157219    0.182903
     17          1           0        3.837924   -2.749398   -0.301519
     18          1           0        1.511028   -1.955036   -0.435835
     19          1           0        2.857282    2.061650    0.398653
     20          1           0        5.173865    1.247184    0.528172
     21          1           0        0.563217    2.791432   -0.303268
     22          1           0       -2.135246    2.399678   -0.300347
 ---------------------------------------------------------------------
 Rotational constants (GHZ):           2.2607762           0.2391748           0.2176133
 Standard basis: 6-31G(d) (6D, 7F)
 There are   239 symmetry adapted cartesian basis functions of A   symmetry.
 There are   239 symmetry adapted basis functions of A   symmetry.
   239 basis functions,   448 primitive gaussians,   239 cartesian basis functions
    52 alpha electrons       52 beta electrons
       nuclear repulsion energy       860.3986186287 Hartrees.
 NAtoms=   22 NActive=   22 NUniq=   22 SFac= 1.00D+00 NAtFMM=   60 NAOKFM=F Big=F
 Integral buffers will be    131072 words long.
 Raffenetti 2 integral format.
 Two-electron integral symmetry is turned on.
 Nuclear repulsion after empirical dispersion term =      860.3565121386 Hartrees.
 One-electron integrals computed using PRISM.
 NBasis=   239 RedAO= T EigKep=  4.52D-04  NBF=   239
 NBsUse=   239 1.00D-06 EigRej= -1.00D+00 NBFU=   239
 Initial guess from the checkpoint file:  "JID_5612.chk"
 B after Tr=    -0.000000   -0.000000   -0.000000
         Rot=    1.000000    0.000269    0.000016    0.000039 Ang=   0.03 deg.
 ExpMin= 1.61D-01 ExpMax= 5.48D+03 ExpMxC= 8.25D+02 IAcc=2 IRadAn=         4 AccDes= 0.00D+00
 Harris functional with IExCor=  402 and IRadAn=       4 diagonalized for initial guess.
 HarFok:  IExCor=  402 AccDes= 0.00D+00 IRadAn=         4 IDoV= 1 UseB2=F ITyADJ=14
 ICtDFT=  3500011 ScaDFX=  1.000000  1.000000  1.000000  1.000000
 FoFCou: FMM=F IPFlag=           0 FMFlag=      100000 FMFlg1=           0
         NFxFlg=           0 DoJE=T BraDBF=F KetDBF=T FulRan=T
         wScrn=  0.000000 ICntrl=       500 IOpCl=  0 I1Cent=   200000004 NGrid=           0
         NMat0=    1 NMatS0=      1 NMatT0=    0 NMatD0=    1 NMtDS0=    0 NMtDT0=    0
 Petite list used in FoFCou.
 Keep R1 ints in memory in canonical form, NReq=418198904.
 Requested convergence on RMS density matrix=1.00D-08 within  32 cycles.
 Requested convergence on MAX density matrix=1.00D-06.
 Requested convergence on             energy=1.00D-06.
 No special actions if energy rises.
 Integral accuracy reduced to 1.0D-05 until final iterations.
 Initial convergence to 1.0D-05 achieved.  Increase integral accuracy.
 SCF Done:  E(RB3LYP) =  -699.856302089     A.U. after   14 cycles
            NFock= 14  Conv=0.85D-08     -V/T= 2.0095
 QCSCF skips out because SCF is already converged.
 Calling FoFJK, ICntrl=      2127 FMM=F ISym2X=0 I1Cent= 0 IOpClX= 0 NMat=1 NMatS=1 NMatT=0.
 ***** Axes restored to original set *****
 -------------------------------------------------------------------
 Center     Atomic                   Forces (Hartrees/Bohr)
 Number     Number              X              Y              Z
 -------------------------------------------------------------------
      1        6           0.005470175    0.000234403    0.000165131
      2        6          -0.006312042   -0.000045220   -0.000168388
      3        6           0.005874305    0.006736945   -0.002856699
      4        6          -0.004135136   -0.000114187    0.000887534
      5        6           0.006760589   -0.005981384    0.002444410
      6        6          -0.006923873    0.000593527    0.000593443
      7        6           0.004412306   -0.013890250    0.009652534
      8        6           0.016744393    0.004972820   -0.005924149
      9        6          -0.013700230    0.011215597   -0.008857788
     10        6           0.019649707   -0.028792666    0.026569962
     11        8          -0.014083641    0.012083966   -0.009382036
     12        8          -0.009858335    0.017659748   -0.012634175
     13        7          -0.018300139    0.001826363   -0.003360645
     14        7           0.023308521   -0.002574358   -0.003015242
     15        7          -0.003997870   -0.003698465    0.006638489
     16        1          -0.000214831   -0.000213981   -0.000084464
     17        1          -0.000910608   -0.000155198   -0.000094704
     18        1          -0.001397475   -0.002949532    0.000892077
     19        1          -0.001813611    0.001521944   -0.001010570
     20        1          -0.001125393    0.000142790    0.000009785
     21        1          -0.000148462    0.000299570   -0.000367009
     22        1           0.000701651    0.001127567   -0.000097495
 -------------------------------------------------------------------
 Cartesian Forces:  Max     0.028792666 RMS     0.008941243

 GradGradGradGradGradGradGradGradGradGradGradGradGradGradGradGradGradGrad
 Berny optimization.
 Search for a local minimum.
 Step number   3 out of a maximum of   76
 All quantities printed in internal units (Hartrees-Bohrs-Radians)
 Update second derivatives using D2CorN and points    1    2    3
 ITU=  0  0  0
     Eigenvalues ---   -0.00494   0.00003   0.00115   0.00158   0.00226
     Eigenvalues ---    0.00598   0.01194   0.01505   0.01582   0.02180
     Eigenvalues ---    0.02418   0.02702   0.03019   0.03183   0.05085
     Eigenvalues ---    0.05369   0.05399   0.05747   0.06192   0.06439
     Eigenvalues ---    0.07122   0.08688   0.08794   0.09384   0.10395
     Eigenvalues ---    0.11363   0.13358   0.14621   0.18297   0.18499
     Eigenvalues ---    0.18589   0.20730   0.20915   0.23095   0.23272
     Eigenvalues ---    0.25972   0.28302   0.29437   0.33536   0.42387
     Eigenvalues ---    0.44432   0.54051   0.58606   0.66951   0.68436
     Eigenvalues ---    0.76717   0.80452   0.83139   0.86357   0.89041
     Eigenvalues ---    0.97113   1.00832   1.09748   1.10744   1.14108
     Eigenvalues ---    1.24124   1.26162   1.30313   1.35436   2.63832
 RFO step:  Lambda=-8.03056689D-03 EMin=-4.94014950D-03
 Quartic linear search produced a step of  0.22169.
 Maximum step size (   0.300) exceeded in Quadratic search.
    -- Step size scaled by   0.385
 B after Tr=     0.000443    0.002356    0.003232
         Rot=    1.000000   -0.000330    0.000237   -0.000130 Ang=  -0.05 deg.
 Variable       Old X    -DE/DX   Delta X   Delta X   Delta X     New X
                                 (Linear)    (Quad)   (Total)
    X1        2.53960   0.00547   0.00008   0.00001   0.00062   2.54022
    Y1       -0.43273   0.00023  -0.00097  -0.00347  -0.00146  -0.43419
    Z1        0.05941   0.00017  -0.00077  -0.00317   0.00020   0.05961
    X2        1.44903  -0.00631   0.00055  -0.00530  -0.00437   1.44466
    Y2        1.78896  -0.00005  -0.00040  -0.00812  -0.00523   1.78374
    Z2       -0.83420  -0.00017   0.00004  -0.01471  -0.00958  -0.84378
    X3       -1.17996   0.00587   0.00060  -0.00109  -0.00013  -1.18009
    Y3        2.03105   0.00674   0.00044  -0.00711  -0.00401   2.02704
    Z3       -0.91817  -0.00286   0.00083  -0.02016  -0.01532  -0.93350
    X4       -2.75667  -0.00414   0.00024   0.00223   0.00296  -2.75371
    Y4        0.06086  -0.00011   0.00077  -0.00948  -0.00699   0.05387
    Z4       -0.10408   0.00089   0.00086  -0.01312  -0.01030  -0.11437
    X5       -1.62525   0.00676  -0.00027   0.00145   0.00182  -1.62344
[...]
                   11         12         13         14         15
    11  O    0.000000
    12  O    2.293978   0.000000
    13  N    3.601643   2.096886   0.000000
    14  N    4.424359   2.589357   1.201448   0.000000
    15  N    5.369904   3.428471   2.371530   1.170105   0.000000
    16  H    6.066340   8.341525   9.364620  10.209894  11.102915
    17  H    4.861335   6.978999   7.688947   8.425729   9.244421
    18  H    2.532315   4.548739   5.229782   6.001093   6.878379
    19  H    3.960340   5.890698   7.265818   8.229217   9.225527
    20  H    5.727794   7.908675   9.189989  10.125831  11.091899
    21  H    3.293317   4.523660   5.638327   6.681101   7.742861
    22  H    3.320768   2.874534   3.866644   4.726272   5.683723
                   16         17         18         19         20
    16  H    0.000000
    17  H    2.486779   0.000000
    18  H    4.303828   2.483584   0.000000
    19  H    4.296956   4.969827   4.310154   0.000000
    20  H    2.483593   4.305140   4.970695   2.475520   0.000000
    21  H    6.377554   6.323636   4.737223   2.484100   4.872305
    22  H    8.538897   7.867182   5.665004   4.937872   7.356412
                   21         22
    21  H    0.000000
    22  H    2.722537   0.000000
 Stoichiometry    C10H7N3O2
 Framework group  C1[X(C10H7N3O2)]
 Deg. of freedom    60
 Full point group                 C1      NOp   1
 Largest Abelian subgroup         C1      NOp   1
 Largest concise Abelian subgroup C1      NOp   1
                         Standard orientation:                         
 ---------------------------------------------------------------------
 Center     Atomic      Atomic             Coordinates (Angstroms)
 Number     Number       Type             X           Y           Z
 ---------------------------------------------------------------------
      1          6           0        4.497573   -1.085250   -0.019693
      2          6           0        3.363059   -1.887321    0.139917
      3          6           0        2.098125   -1.312370    0.161587
      4          6           0        1.958682    0.085457    0.049003
      5          6           0        3.106857    0.889066   -0.089345
      6          6           0        4.366104    0.301890   -0.134904
      7          6           0        0.645887    0.685037    0.047975
      8          6           0        0.220530    1.987728    0.368579
      9          6           0       -1.146171    2.032541    0.153913
     10          6           0       -1.556399    0.756247   -0.332485
     11          8           0       -0.394997   -0.068067   -0.337373
     12          8           0       -2.624706    0.299902   -0.731493
     13          7           0       -3.771107   -0.440313    0.860605
     14          7           0       -4.701491   -0.894444    0.250992
     15          7           0       -5.614139   -1.331564   -0.336499
     16          1           0        5.483295   -1.540336   -0.057052
     17          1           0        3.466436   -2.962747    0.248067
     18          1           0        1.210356   -1.924993    0.284953
     19          1           0        3.001600    1.964296   -0.207289
     20          1           0        5.246165    0.922353   -0.274230
     21          1           0        0.858551    2.776063    0.751424
     22          1           0       -1.827093    2.856789    0.312099
 ---------------------------------------------------------------------
 Rotational constants (GHZ):           1.6742434           0.2469167           0.2204966

 **********************************************************************

            Population analysis using the SCF density.

 **********************************************************************

 Orbital symmetries:
       Occupied  (A) (A) (A) (A) (A) (A) (A) (A) (A) (A) (A) (A)
                 (A) (A) (A) (A) (A) (A) (A) (A) (A) (A) (A) (A)
                 (A) (A) (A) (A) (A) (A) (A) (A) (A) (A) (A) (A)
                 (A) (A) (A) (A) (A) (A) (A) (A) (A) (A) (A) (A)
                 (A) (A) (A) (A)
       Virtual   (A) (A) (A) (A) (A) (A) (A) (A) (A) (A) (A) (A)
                 (A) (A) (A) (A) (A) (A) (A) (A) (A) (A) (A) (A)
                 (A) (A) (A) (A) (A) (A) (A) (A) (A) (A) (A) (A)
                 (A) (A) (A) (A) (A) (A) (A) (A) (A) (A) (A) (A)
                 (A) (A) (A) (A) (A) (A) (A) (A) (A) (A) (A) (A)
                 (A) (A) (A) (A) (A) (A) (A) (A) (A) (A) (A) (A)
                 (A) (A) (A) (A) (A) (A) (A) (A) (A) (A) (A) (A)
                 (A) (A) (A) (A) (A) (A) (A) (A) (A) (A) (A) (A)
                 (A) (A) (A) (A) (A) (A) (A) (A) (A) (A) (A) (A)
                 (A) (A) (A) (A) (A) (A) (A) (A) (A) (A) (A) (A)
                 (A) (A) (A) (A) (A) (A) (A) (A) (A) (A) (A) (A)
                 (A) (A) (A) (A) (A) (A) (A) (A) (A) (A) (A) (A)
                 (A) (A) (A) (A) (A) (A) (A) (A) (A) (A) (A) (A)
                 (A) (A) (A) (A) (A) (A) (A) (A) (A) (A) (A) (A)
                 (A) (A) (A) (A) (A) (A) (A) (A) (A) (A) (A) (A)
                 (A) (A) (A) (A) (A) (A) (A)
 The electronic state is 1-A.
 Alpha  occ. eigenvalues --  -19.23773 -19.18768 -14.46907 -14.36507 -14.36335
 Alpha  occ. eigenvalues --  -10.31883 -10.30157 -10.23817 -10.23669 -10.23348
 Alpha  occ. eigenvalues --  -10.22904 -10.22484 -10.22417 -10.22228 -10.22053
 Alpha  occ. eigenvalues --   -1.14425  -1.09407  -1.05564  -0.92692  -0.89110
 Alpha  occ. eigenvalues --   -0.84282  -0.80792  -0.77816  -0.72856  -0.65304
 Alpha  occ. eigenvalues --   -0.63944  -0.61606  -0.59016  -0.56356  -0.52006
 Alpha  occ. eigenvalues --   -0.50370  -0.49572  -0.48383  -0.46901  -0.46372
 Alpha  occ. eigenvalues --   -0.46006  -0.45365  -0.45170  -0.44173  -0.43606
 Alpha  occ. eigenvalues --   -0.41099  -0.40884  -0.39426  -0.38409  -0.37355
 Alpha  occ. eigenvalues --   -0.35700  -0.32081  -0.31165  -0.29008  -0.28311
 Alpha  occ. eigenvalues --   -0.22284  -0.21105
 Alpha virt. eigenvalues --   -0.14795  -0.05120  -0.03098   0.02536   0.05417
 Alpha virt. eigenvalues --    0.06166   0.06928   0.07642   0.09190   0.11484
 Alpha virt. eigenvalues --    0.12576   0.13469   0.14318   0.16093   0.16492
 Alpha virt. eigenvalues --    0.18248   0.19474   0.21946   0.25084   0.25857
 Alpha virt. eigenvalues --    0.27551   0.28836   0.31026   0.32345   0.34288
 Alpha virt. eigenvalues --    0.39024   0.42177   0.45201   0.47110   0.48497
 Alpha virt. eigenvalues --    0.49142   0.50598   0.51434   0.52212   0.53223
 Alpha virt. eigenvalues --    0.53565   0.55112   0.55916   0.56244   0.56352
 Alpha virt. eigenvalues --    0.56918   0.58781   0.58855   0.59253   0.60389
 Alpha virt. eigenvalues --    0.61314   0.61813   0.63284   0.63696   0.65189
 Alpha virt. eigenvalues --    0.65784   0.66490   0.70029   0.72643   0.74544
 Alpha virt. eigenvalues --    0.74842   0.76195   0.77544   0.78336   0.79810
 Alpha virt. eigenvalues --    0.80978   0.81387   0.81836   0.82922   0.85167
 Alpha virt. eigenvalues --    0.86209   0.86818   0.88235   0.89417   0.89586
 Alpha virt. eigenvalues --    0.92614   0.93602   0.95521   0.97070   1.00422
 Alpha virt. eigenvalues --    1.02166   1.03196   1.05651   1.06990   1.08386
 Alpha virt. eigenvalues --    1.09869   1.12157   1.13970   1.14786   1.17071
 Alpha virt. eigenvalues --    1.18449   1.20524   1.22660   1.29562   1.34712
 Alpha virt. eigenvalues --    1.34976   1.35727   1.37810   1.38776   1.40082
 Alpha virt. eigenvalues --    1.41854   1.42381   1.43148   1.43873   1.44550
 Alpha virt. eigenvalues --    1.44990   1.45810   1.46304   1.47949   1.48766
 Alpha virt. eigenvalues --    1.50244   1.54074   1.57438   1.62508   1.66096
 Alpha virt. eigenvalues --    1.71097   1.73131   1.75297   1.76742   1.77229
 Alpha virt. eigenvalues --    1.79210   1.81720   1.82661   1.86285   1.87726
 Alpha virt. eigenvalues --    1.89776   1.92471   1.94317   1.94621   1.96146
 Alpha virt. eigenvalues --    2.01210   2.02507   2.03012   2.04959   2.06010
 Alpha virt. eigenvalues --    2.08302   2.10547   2.11543   2.12638   2.12762
 Alpha virt. eigenvalues --    2.12956   2.17719   2.20616   2.21173   2.22907
 Alpha virt. eigenvalues --    2.26191   2.27867   2.28505   2.30720   2.33531
 Alpha virt. eigenvalues --    2.37215   2.39708   2.47113   2.49398   2.53018
 Alpha virt. eigenvalues --    2.55661   2.61717   2.62004   2.64168   2.66071
 Alpha virt. eigenvalues --    2.66123   2.67675   2.69689   2.71305   2.73277
 Alpha virt. eigenvalues --    2.76407   2.80206   2.88049   2.91798   2.93648
 Alpha virt. eigenvalues --    2.95150   3.01865   3.03432   3.10816   3.14715
 Alpha virt. eigenvalues --    3.25003   3.39815   3.52805   3.63194   3.97926
 Alpha virt. eigenvalues --    4.05029   4.06536   4.08634   4.10439   4.17854
 Alpha virt. eigenvalues --    4.23179   4.29420   4.30533   4.37976   4.48933
 Alpha virt. eigenvalues --    4.67831   4.76610
          Condensed to atoms (all electrons):
               1          2          3          4          5          6
     1  C    4.850996   0.538386  -0.036270  -0.032168  -0.038666   0.543045
     2  C    0.538386   4.872369   0.511143  -0.011634  -0.041724  -0.024813
     3  C   -0.036270   0.511143   5.000648   0.476539  -0.065823  -0.041627
     4  C   -0.032168  -0.011634   0.476539   4.788022   0.529067  -0.013482
     5  C   -0.038666  -0.041724  -0.065823   0.529067   4.976050   0.525531
     6  C    0.543045  -0.024813  -0.041627  -0.013482   0.525531   4.858524
     7  C    0.000896   0.005193  -0.037246   0.378952  -0.047558   0.006597
     8  C    0.000010  -0.000214   0.008833  -0.066366  -0.012014   0.000156
     9  C   -0.000000   0.000006  -0.000242   0.006586   0.000486  -0.000005
    10  C    0.000000   0.000001  -0.000013   0.001880   0.000015   0.000001
    11  O    0.000003   0.000318  -0.002228  -0.051234   0.002138  -0.000065
    12  O    0.000000  -0.000000  -0.000006  -0.000134   0.000001  -0.000000
    13  N    0.000000   0.000000  -0.000001   0.000001  -0.000000  -0.000000
    14  N    0.000000  -0.000000   0.000000  -0.000000   0.000000   0.000000
    15  N    0.000000  -0.000000  -0.000000  -0.000000  -0.000000   0.000000
    16  H    0.361743  -0.041433   0.004628   0.000512   0.004916  -0.041859
    17  H   -0.041095   0.361200  -0.036884   0.003180   0.000818   0.004336
    18  H    0.004292  -0.040180   0.362327  -0.041253   0.005197   0.000262
    19  H    0.004567   0.000193   0.005712  -0.041136   0.353101  -0.040545
    20  H   -0.040709   0.004331   0.000820   0.003398  -0.037953   0.360165
    21  H   -0.000000   0.000000  -0.000080  -0.003914   0.001692   0.000055
    22  H    0.000000  -0.000000  -0.000000  -0.000106   0.000001   0.000000
               7          8          9         10         11         12
     1  C    0.000896   0.000010  -0.000000   0.000000   0.000003   0.000000
     2  C    0.005193  -0.000214   0.000006   0.000001   0.000318  -0.000000
     3  C   -0.037246   0.008833  -0.000242  -0.000013  -0.002228  -0.000006
     4  C    0.378952  -0.066366   0.006586   0.001880  -0.051234  -0.000134
     5  C   -0.047558  -0.012014   0.000486   0.000015   0.002138   0.000001
     6  C    0.006597   0.000156  -0.000005   0.000001  -0.000065  -0.000000
     7  C    4.735639   0.453324  -0.013324  -0.064072   0.306688  -0.001054
     8  C    0.453324   5.109339   0.446744  -0.036353  -0.063510   0.005395
     9  C   -0.013324   0.446744   5.149958   0.419640  -0.112361  -0.065753
    10  C   -0.064072  -0.036353   0.419640   4.395729   0.233904   0.484181
    11  O    0.306688  -0.063510  -0.112361   0.233904   8.193237  -0.056036
    12  O   -0.001054   0.005395  -0.065753   0.484181  -0.056036   8.035680
    13  N    0.000239   0.000083  -0.002192  -0.011075  -0.000722   0.016994
    14  N   -0.000003   0.000001   0.000039  -0.000572  -0.000001  -0.005195
    15  N    0.000000  -0.000000   0.000002   0.000158  -0.000000  -0.000804
    16  H    0.000002  -0.000000   0.000000  -0.000000   0.000000  -0.000000
    17  H   -0.000184   0.000001  -0.000000  -0.000000  -0.000003   0.000000
    18  H   -0.010514   0.000234   0.000060  -0.000069   0.007671   0.000001
    19  H   -0.010450   0.006036   0.000020  -0.000023   0.000002  -0.000000
    20  H   -0.000216   0.000001   0.000000  -0.000000   0.000000   0.000000
    21  H   -0.033908   0.361101  -0.030992   0.004597   0.002772  -0.000025
    22  H    0.004082  -0.034219   0.363158  -0.029663   0.003037  -0.001033
              13         14         15         16         17         18
     1  C    0.000000   0.000000   0.000000   0.361743  -0.041095   0.004292
     2  C    0.000000  -0.000000  -0.000000  -0.041433   0.361200  -0.040180
     3  C   -0.000001   0.000000  -0.000000   0.004628  -0.036884   0.362327
     4  C    0.000001  -0.000000  -0.000000   0.000512   0.003180  -0.041253
     5  C   -0.000000   0.000000  -0.000000   0.004916   0.000818   0.005197
     6  C   -0.000000   0.000000   0.000000  -0.041859   0.004336   0.000262
     7  C    0.000239  -0.000003   0.000000   0.000002  -0.000184  -0.010514
     8  C    0.000083   0.000001  -0.000000  -0.000000   0.000001   0.000234
     9  C   -0.002192   0.000039   0.000002   0.000000  -0.000000   0.000060
    10  C   -0.011075  -0.000572   0.000158  -0.000000  -0.000000  -0.000069
    11  O   -0.000722  -0.000001  -0.000000   0.000000  -0.000003   0.007671
    12  O    0.016994  -0.005195  -0.000804  -0.000000   0.000000   0.000001
    13  N    7.048133   0.384289  -0.101849  -0.000000  -0.000000   0.000001
    14  N    0.384289   5.720774   0.492373  -0.000000   0.000000  -0.000000
    15  N   -0.101849   0.492373   6.905894   0.000000   0.000000   0.000000
    16  H   -0.000000  -0.000000   0.000000   0.572809  -0.005176  -0.000149
    17  H   -0.000000   0.000000   0.000000  -0.005176   0.566576  -0.004722
    18  H    0.000001  -0.000000   0.000000  -0.000149  -0.004722   0.542242
    19  H   -0.000000   0.000000   0.000000  -0.000164   0.000016  -0.000138
    20  H    0.000000  -0.000000  -0.000000  -0.005266  -0.000166   0.000015
    21  H   -0.000000   0.000000  -0.000000  -0.000000   0.000000  -0.000009
    22  H    0.000118  -0.000005   0.000000  -0.000000   0.000000  -0.000000
              19         20         21         22
     1  C    0.004567  -0.040709  -0.000000   0.000000
     2  C    0.000193   0.004331   0.000000  -0.000000
     3  C    0.005712   0.000820  -0.000080  -0.000000
     4  C   -0.041136   0.003398  -0.003914  -0.000106
     5  C    0.353101  -0.037953   0.001692   0.000001
     6  C   -0.040545   0.360165   0.000055   0.000000
     7  C   -0.010450  -0.000216  -0.033908   0.004082
     8  C    0.006036   0.000001   0.361101  -0.034219
     9  C    0.000020   0.000000  -0.030992   0.363158
    10  C   -0.000023  -0.000000   0.004597  -0.029663
    11  O    0.000002   0.000000   0.002772   0.003037
    12  O   -0.000000   0.000000  -0.000025  -0.001033
    13  N   -0.000000   0.000000  -0.000000   0.000118
    14  N    0.000000  -0.000000   0.000000  -0.000005
    15  N    0.000000  -0.000000  -0.000000   0.000000
    16  H   -0.000164  -0.005266  -0.000000  -0.000000
    17  H    0.000016  -0.000166   0.000000   0.000000
    18  H   -0.000138   0.000015  -0.000009  -0.000000
    19  H    0.579759  -0.005135   0.001832   0.000001
    20  H   -0.005135   0.572506  -0.000001   0.000000
    21  H    0.001832  -0.000001   0.528746  -0.001705
    22  H    0.000001   0.000000  -0.001705   0.511267
 Mulliken charges:
               1
     1  C   -0.115029
     2  C   -0.133142
     3  C   -0.150230
     4  C    0.073289
     5  C   -0.155273
     6  C   -0.136275
     7  C    0.326916
     8  C   -0.178581
     9  C   -0.161830
    10  C    0.601732
    11  O   -0.463611
    12  O   -0.412212
    13  N   -0.334021
    14  N    0.408299
    15  N   -0.295775
    16  H    0.149437
    17  H    0.152104
    18  H    0.174733
    19  H    0.146353
    20  H    0.148210
    21  H    0.169837
    22  H    0.185067
 Sum of Mulliken charges =  -0.00000
 Mulliken charges with hydrogens summed into heavy atoms:
               1
     1  C    0.034408
     2  C    0.018962
     3  C    0.024503
     4  C    0.073289
     5  C   -0.008921
     6  C    0.011934
     7  C    0.326916
     8  C   -0.008743
     9  C    0.023237
    10  C    0.601732
    11  O   -0.463611
    12  O   -0.412212
    13  N   -0.334021
    14  N    0.408299
    15  N   -0.295775
 Electronic spatial extent (au):  <R**2>=           4551.2658
 Charge=             -0.0000 electrons
 Dipole moment (field-independent basis, Debye):
    X=              9.0062    Y=              2.8397    Z=              0.7732  Tot=              9.4749
 Quadrupole moment (field-independent basis, Debye-Ang):
   XX=            -98.6041   YY=            -72.5174   ZZ=            -87.6454
   XY=             -9.5185   XZ=             -2.9937   YZ=             -0.4583
 Traceless Quadrupole moment (field-independent basis, Debye-Ang):
   XX=            -12.3485   YY=             13.7383   ZZ=             -1.3897
   XY=             -9.5185   XZ=             -2.9937   YZ=             -0.4583
 Octapole moment (field-independent basis, Debye-Ang**2):
  XXX=            218.3464  YYY=              9.7728  ZZZ=             -5.6381  XYY=             13.7111
  XXY=             32.8072  XXZ=             13.9830  XZZ=            -12.5559  YZZ=              0.3263
  YYZ=              6.3160  XYZ=              3.3952
 Hexadecapole moment (field-independent basis, Debye-Ang**3):
 XXXX=          -5617.2399 YYYY=           -731.6337 ZZZZ=           -149.8332 XXXY=           -274.1278
 XXXZ=           -145.8799 YYYX=            -52.1443 YYYZ=              5.9829 ZZZX=              8.4320
 ZZZY=             -1.6255 XXYY=           -957.8690 XXZZ=           -927.5319 YYZZ=           -167.1445
 XXYZ=            -40.6750 YYXZ=             -6.1500 ZZXY=              8.8154
 N-N= 8.469409684546D+02 E-N=-3.322873100194D+03  KE= 6.933297528275D+02


 THOUGH I SPEAK WITH THE TONGUES OF MEN AND OF ANGELS, 
 AND HAVE NOT LOVE,
 I AM BECOME AS SOUNDING BRASS, A TINKLING CYMBAL.
 AND THOUGH I HAVE THE GIFT OF PROPHECY,
 AND UNDERSTAND ALL MYSTERIES, AND ALL KNOWLEDGE.
 AND THOUGH I HAVE ALL FAITH, SO THAT I COULD REMOVE MOUNTAINS,
 AND HAVE NOT LOVE, I AM NOTHING.
 AND THOUGH I BESTOW ALL MY GOODS TO FEED THE POOR,
 AND THOUGH I GIVE MY BODY TO BE BURNED,
 AND HAVE NOT LOVE IT PROFITETH ME NOTHING.
 LOVE SUFFERETH LONG, AND IS KIND,
 LOVE ENVIETH NOT,
 LOVE VAUNTETH NOT ITSELF, IS NOT PUFFED UP,
 DOTH NOT BEHAVE ITSELF UNSEEMLY, SEEKETH NOT HER OWN,
 IS NOT EASILY PROVOKED, THINKETH NO EVIL,
 REJOICETH NOT IN INIQUITY, BUT REJOICETH IN THE TRUTH,
 BEARETH ALL THINGS, BELIEVETH ALL THINGS,
 HOPETH ALL THINGS, ENDURETH ALL THINGS.
 LOVE NEVER FAILETH, BUT WHETHER THERE BE PROPHECIES, THEY SHALL FAIL, 
 WHETHER THERE BE TONGUES, THEY SHALL CEASE,
 WHETHER THERE BE KNOWLEDGE, IT SHALL VANISH AWAY.
 FOR WE KNOW IN PART, AND WE PROPHESY IN PART.
 BUT WHEN THAT WHICH IS PERFECT IS COME, THEN THAT WHICH IS IN PART 
 SHALL BE DONE AWAY. 
 WHEN I WAS A CHILD, I SPAKE AS A CHILD, I UNDERSTOOD AS A CHILD, 
 I THOUGHT AS A CHILD.
 BUT WHEN I BECAME A MAN, I PUT AWAY CHILDISH THINGS.
 FOR NOW WE SEE THROUGH A GLASS, DARKLY, BUT THEN FACE TO FACE.
 NOW I KNOW IN PART. BUT THEN SHALL I KNOW EVEN AS ALSO I AM KNOWN.
 AND NOW ABIDETH FAITH, HOPE AND LOVE, THESE THREE.
 BUT THE GREATEST OF THESE IS LOVE.

                     I CORINTHIANS 13
 Error termination request processed by link 9999.
 Error termination via Lnk1e in /apps/brussel/CO7/skylake/software/Gaussian/G16.A.03-intel-2017b/g16/l9999.exe.bin at Tue Feb 23 16:17:44 2021.
 Job cpu time:       0 days  2 hours 51 minutes 18.5 seconds.
 Elapsed time:       0 days  0 hours 48 minutes 42.2 seconds.
 File lengths (MBytes):  RWF=    400 Int=      0 D2E=      0 Chk=     12 Scr=      8
