 Entering Gaussian System, Link 0=g16
 Initial command:
 /apps/brussel/CO7/skylake/software/Gaussian/G16.A.03-intel-2017b/g16/l1.exe "/scratch/brussel/102/vsc10255/Gau-38910.inp" -scrdir="/scratch/brussel/102/vsc10255/"
 Entering Link 1 = /apps/brussel/CO7/skylake/software/Gaussian/G16.A.03-intel-2017b/g16/l1.exe.bin PID=     38912.
  
 Copyright (c) 1988,1990,1992,1993,1995,1998,2003,2009,2016,
            Gaussian, Inc.  All Rights Reserved.
  
 This is part of the Gaussian(R) 16 program.  It is based on
 the Gaussian(R) 09 system (copyright 2009, Gaussian, Inc.),
 the Gaussian(R) 03 system (copyright 2003, Gaussian, Inc.),
 the Gaussian(R) 98 system (copyright 1998, Gaussian, Inc.),
 the Gaussian(R) 94 system (copyright 1995, Gaussian, Inc.),
 the Gaussian 92(TM) system (copyright 1992, Gaussian, Inc.),
 the Gaussian 90(TM) system (copyright 1990, Gaussian, Inc.),
 the Gaussian 88(TM) system (copyright 1988, Gaussian, Inc.),
 the Gaussian 86(TM) system (copyright 1986, Carnegie Mellon
 University), and the Gaussian 82(TM) system (copyright 1983,
 Carnegie Mellon University). Gaussian is a federally registered
 trademark of Gaussian, Inc.
  
 This software contains proprietary and confidential information,
 including trade secrets, belonging to Gaussian, Inc.
  
 This software is provided under written license and may be
 used, copied, transmitted, or stored only in accord with that
 written license.
  
 The following legend is applicable only to US Government
 contracts under FAR:
  
                    RESTRICTED RIGHTS LEGEND
  
 Use, reproduction and disclosure by the US Government is
 subject to restrictions as set forth in subparagraphs (a)
 and (c) of the Commercial Computer Software - Restricted
 Rights clause in FAR 52.227-19.
  
 Gaussian, Inc.
 340 Quinnipiac St., Bldg. 40, Wallingford CT 06492
  
  
 ---------------------------------------------------------------
 Warning -- This program may not be used in any manner that
 competes with the business of Gaussian, Inc. or will provide
 assistance to any competitor of Gaussian, Inc.  The licensee
 of this program is prohibited from giving any competitor of
 Gaussian, Inc. access to this program.  By using this program,
 the user acknowledges that Gaussian, Inc. is engaged in the
 business of creating and licensing software in the field of
 computational chemistry and represents and warrants to the
 licensee that it is not a competitor of Gaussian, Inc. and that
 it will not use this program in any manner prohibited above.
 ---------------------------------------------------------------
  

 Cite this work as:
 Gaussian 16, Revision A.03,
 M. J. Frisch, G. W. Trucks, H. B. Schlegel, G. E. Scuseria, 
 M. A. Robb, J. R. Cheeseman, G. Scalmani, V. Barone, 
 G. A. Petersson, H. Nakatsuji, X. Li, M. Caricato, A. V. Marenich, 
 J. Bloino, B. G. Janesko, R. Gomperts, B. Mennucci, H. P. Hratchian, 
 J. V. Ortiz, A. F. Izmaylov, J. L. Sonnenberg, D. Williams-Young, 
 F. Ding, F. Lipparini, F. Egidi, J. Goings, B. Peng, A. Petrone, 
 T. Henderson, D. Ranasinghe, V. G. Zakrzewski, J. Gao, N. Rega, 
 G. Zheng, W. Liang, M. Hada, M. Ehara, K. Toyota, R. Fukuda, 
 J. Hasegawa, M. Ishida, T. Nakajima, Y. Honda, O. Kitao, H. Nakai, 
 T. Vreven, K. Throssell, J. A. Montgomery, Jr., J. E. Peralta, 
 F. Ogliaro, M. J. Bearpark, J. J. Heyd, E. N. Brothers, K. N. Kudin, 
 V. N. Staroverov, T. A. Keith, R. Kobayashi, J. Normand, 
 K. Raghavachari, A. P. Rendell, J. C. Burant, S. S. Iyengar, 
 J. Tomasi, M. Cossi, J. M. Millam, M. Klene, C. Adamo, R. Cammi, 
 J. W. Ochterski, R. L. Martin, K. Morokuma, O. Farkas, 
 J. B. Foresman, and D. J. Fox, Gaussian, Inc., Wallingford CT, 2016.
 
 ******************************************
 Gaussian 16:  ES64L-G16RevA.03 25-Dec-2016
                23-Feb-2021 
 ******************************************
 %chk=JID_7235.chk
 %mem=8GB
 %nprocshared=4
 Will use up to    4 processors via shared memory.
 ----------------------------------------------------------------------
 # opt=(cartesian,calcfc) freq B3LYP/6-31G(d) empiricaldispersion=gd3bj
  scf=xqc
 ----------------------------------------------------------------------
 1/10=4,18=10,26=3,38=1/1,3;
 2/12=2,17=6,18=5,29=2,40=1/2;
 3/5=1,6=6,7=1,11=2,25=1,30=1,71=2,74=-5,124=41,140=1/1,2,3;
 4//1;
 5/5=2,8=3,13=1,38=5/2,8;
 8/6=4,10=90,11=11/1;
 11/6=1,8=1,9=11,15=111,16=1/1,2,10;
 10/6=1,13=1/2;
 6/7=2,8=2,9=2,10=2,28=1/1;
 7/7=1,10=1,18=20,25=1/1,2,3,16;
 1/10=4,18=10,26=3/3(2);
 2/29=1/2;
 99/12=1/99;
 2/29=1/2;
 3/5=1,6=6,7=1,11=2,25=1,30=1,71=1,74=-5,124=41/1,2,3;
 4/5=5,16=3,69=1/1;
 5/5=2,8=3,13=1,38=5/2,8;
 7/7=1/1,2,3,16;
 1/18=10,26=3/3(-5);
 2/29=1/2;
 6/7=2,8=2,9=2,10=2,19=2,28=1/1;
 99/9=1,12=1/99;
 -------------------------------
 CID_131873537_JID_7235_neutraal
 -------------------------------
 Symbolic Z-matrix:
 Charge =  0 Multiplicity = 1
 C                     1.0395   -0.05292   0.0751 
 N                     0.33261  -1.32517  -0.08506 
 C                    -1.11254  -1.12249  -0.2654 
 C                    -1.61535  -0.13358  -1.33465 
 C                    -1.42375  -0.52976  -2.79636 
 C                    -2.09046  -1.79654  -3.17709 
 N                    -1.67751  -2.73702  -3.99992 
 N                    -2.65858  -3.70934  -3.99302 
 C                    -3.59259  -3.28835  -3.1744 
 O                    -3.31754  -2.06907  -2.63179 
 N                    -4.74717  -3.85489  -2.81464 
 C                     1.00439  -2.27432  -1.00398 
 C                     2.4716   -2.56381  -0.58964 
 C                     2.56489  -3.31369   0.74114 
 C                     1.78975  -4.62796   0.69607 
 C                     0.35599  -4.43302   0.21237 
 C                     0.3107   -3.65527  -1.10286 
 H                     0.47402   0.63398   0.71608 
 H                     1.21668   0.44108  -0.88625 
 H                     1.99915  -0.18841   0.58227 
 H                    -1.64424  -2.07379  -0.35516 
 H                    -1.47844  -0.73357   0.69612 
 H                    -2.68742   0.02519  -1.15327 
 H                    -1.15441   0.84909  -1.17805 
 H                    -1.83742   0.26724  -3.42678 
 H                    -0.35963  -0.58052  -3.04234 
 H                    -5.46382  -3.25473  -2.42888 
 H                    -5.09021  -4.59947  -3.40931 
 H                     1.03479  -1.83959  -2.00819 
 H                     2.94401  -3.17537  -1.37076 
 H                     3.06955  -1.64781  -0.54657 
 H                     2.17959  -2.68751   1.55434 
 H                     3.61599  -3.52037   0.97259 
 H                     1.78633  -5.09258   1.68844 
 H                     2.30386  -5.32476   0.02212 
 H                    -0.22454  -3.90759   0.97952 
 H                    -0.11714  -5.412     0.07372 
 H                    -0.72385  -3.57266  -1.44156 
 H                     0.81662  -4.24674  -1.87859 
 

 GradGradGradGradGradGradGradGradGradGradGradGradGradGradGradGradGradGrad
 Berny optimization.
 Initialization pass.
 No Z-matrix variables, so optimization will use Cartesian coordinates.
 Trust Radius=3.00D-01 FncErr=1.00D-07 GrdErr=1.00D-06 EigMax=2.50D+02 EigMin=1.00D-04
 Number of steps in this run=    127 maximum allowed number of steps=    234.
 GradGradGradGradGradGradGradGradGradGradGradGradGradGradGradGradGradGrad

 ---------------------------------------------------------------------------------------------------
                            Z-MATRIX (ANGSTROMS AND DEGREES)
   CD    Cent   Atom    N1       Length/X        N2       Alpha/Y        N3        Beta/Z          J
 ---------------------------------------------------------------------------------------------------
      1      1  C        0   1.039500         -0.052920          0.075100
      2      2  N        0   0.332610         -1.325170         -0.085060
      3      3  C        0  -1.112540         -1.122490         -0.265400
      4      4  C        0  -1.615350         -0.133580         -1.334650
      5      5  C        0  -1.423750         -0.529760         -2.796360
      6      6  C        0  -2.090460         -1.796540         -3.177090
      7      7  N        0  -1.677510         -2.737020         -3.999920
      8      8  N        0  -2.658580         -3.709340         -3.993020
      9      9  C        0  -3.592590         -3.288350         -3.174400
     10     10  O        0  -3.317540         -2.069070         -2.631790
     11     11  N        0  -4.747170         -3.854890         -2.814640
     12     12  C        0   1.004390         -2.274320         -1.003980
     13     13  C        0   2.471600         -2.563810         -0.589640
     14     14  C        0   2.564890         -3.313690          0.741140
     15     15  C        0   1.789750         -4.627960          0.696070
     16     16  C        0   0.355990         -4.433020          0.212370
     17     17  C        0   0.310700         -3.655270         -1.102860
     18     18  H        0   0.474020          0.633980          0.716080
     19     19  H        0   1.216680          0.441080         -0.886250
     20     20  H        0   1.999150         -0.188410          0.582270
     21     21  H        0  -1.644240         -2.073790         -0.355160
     22     22  H        0  -1.478440         -0.733570          0.696120
     23     23  H        0  -2.687420          0.025190         -1.153270
     24     24  H        0  -1.154410          0.849090         -1.178050
     25     25  H        0  -1.837420          0.267240         -3.426780
     26     26  H        0  -0.359630         -0.580520         -3.042340
     27     27  H        0  -5.463820         -3.254730         -2.428880
     28     28  H        0  -5.090210         -4.599470         -3.409310
     29     29  H        0   1.034790         -1.839590         -2.008190
     30     30  H        0   2.944010         -3.175370         -1.370760
     31     31  H        0   3.069550         -1.647810         -0.546570
     32     32  H        0   2.179590         -2.687510          1.554340
     33     33  H        0   3.615990         -3.520370          0.972590
     34     34  H        0   1.786330         -5.092580          1.688440
     35     35  H        0   2.303860         -5.324760          0.022120
     36     36  H        0  -0.224540         -3.907590          0.979520
     37     37  H        0  -0.117140         -5.412000          0.073720
     38     38  H        0  -0.723850         -3.572660         -1.441560
     39     39  H        0   0.816620         -4.246740         -1.878590
 ---------------------------------------------------------------------------------------------------
                         Z-Matrix orientation:                         
 ---------------------------------------------------------------------
 Center     Atomic      Atomic             Coordinates (Angstroms)
 Number     Number       Type             X           Y           Z
 ---------------------------------------------------------------------
      1          6           0        1.039500   -0.052920    0.075100
      2          7           0        0.332610   -1.325170   -0.085060
      3          6           0       -1.112540   -1.122490   -0.265400
      4          6           0       -1.615350   -0.133580   -1.334650
      5          6           0       -1.423750   -0.529760   -2.796360
      6          6           0       -2.090460   -1.796540   -3.177090
      7          7           0       -1.677510   -2.737020   -3.999920
      8          7           0       -2.658580   -3.709340   -3.993020
      9          6           0       -3.592590   -3.288350   -3.174400
     10          8           0       -3.317540   -2.069070   -2.631790
     11          7           0       -4.747170   -3.854890   -2.814640
     12          6           0        1.004390   -2.274320   -1.003980
     13          6           0        2.471600   -2.563810   -0.589640
     14          6           0        2.564890   -3.313690    0.741140
     15          6           0        1.789750   -4.627960    0.696070
     16          6           0        0.355990   -4.433020    0.212370
     17          6           0        0.310700   -3.655270   -1.102860
     18          1           0        0.474020    0.633980    0.716080
     19          1           0        1.216680    0.441080   -0.886250
     20          1           0        1.999150   -0.188410    0.582270
     21          1           0       -1.644240   -2.073790   -0.355160
     22          1           0       -1.478440   -0.733570    0.696120
     23          1           0       -2.687420    0.025190   -1.153270
     24          1           0       -1.154410    0.849090   -1.178050
     25          1           0       -1.837420    0.267240   -3.426780
     26          1           0       -0.359630   -0.580520   -3.042340
     27          1           0       -5.463820   -3.254730   -2.428880
     28          1           0       -5.090210   -4.599470   -3.409310
     29          1           0        1.034790   -1.839590   -2.008190
     30          1           0        2.944010   -3.175370   -1.370760
     31          1           0        3.069550   -1.647810   -0.546570
     32          1           0        2.179590   -2.687510    1.554340
     33          1           0        3.615990   -3.520370    0.972590
     34          1           0        1.786330   -5.092580    1.688440
     35          1           0        2.303860   -5.324760    0.022120
     36          1           0       -0.224540   -3.907590    0.979520
     37          1           0       -0.117140   -5.412000    0.073720
     38          1           0       -0.723850   -3.572660   -1.441560
     39          1           0        0.816620   -4.246740   -1.878590
 ---------------------------------------------------------------------
                    Distance matrix (angstroms):
                    1          2          3          4          5
     1  C    0.000000
     2  N    1.464228   0.000000
     3  C    2.427179   1.470395   0.000000
     4  C    3.007013   2.603058   1.540797   0.000000
     5  C    3.813169   3.326954   2.618003   1.526521   0.000000
     6  C    4.838760   3.956527   3.144616   2.527004   1.481280
     7  N    5.585009   4.621691   4.107619   3.726316   2.526845
     8  N    6.602636   5.468422   4.793452   4.576169   3.614765
     9  C    6.517938   5.367056   4.393618   4.152918   3.529391
    10  O    5.511435   4.512518   3.370140   2.885506   2.446017
    11  N    7.502741   6.297162   5.212981   5.083976   4.701270
    12  C    2.469871   1.482089   2.520636   3.399286   3.485969
    13  C    2.966034   2.522718   3.876673   4.812922   4.917390
    14  C    3.661017   3.101595   4.397496   5.647691   6.014434
    15  C    4.677550   3.693487   4.651455   5.993161   6.270478
    16  C    4.435234   3.122138   3.653006   4.976408   5.239787
    17  C    3.859490   2.542786   3.023562   4.020659   3.955385
    18  H    1.096565   2.121342   2.562355   3.026567   4.158492
    19  H    1.095273   2.131461   2.873234   2.924327   3.400430
    20  H    1.093850   2.124831   3.357628   4.091723   4.821608
    21  H    3.386960   2.131038   1.093496   2.173626   2.896912
    22  H    2.681226   2.059159   1.099846   2.121971   3.498849
    23  H    3.924911   3.476367   2.141432   1.098836   2.145828
    24  H    2.682769   2.851887   2.172973   1.096645   2.143058
    25  H    4.543384   4.290908   3.528615   2.141724   1.097161
    26  H    3.457508   3.127172   2.927798   2.166286   1.093359
    27  H    7.669073   6.543340   5.306669   5.074410   4.886990
    28  H    8.389611   7.153926   6.147798   6.026860   5.511912
    29  H    2.744505   2.110951   2.857022   3.222944   2.895045
    30  H    3.932857   3.449011   4.678860   5.481018   5.301784
    31  H    2.655419   2.794267   4.224322   4.986206   5.147945
    32  H    3.229399   2.820450   4.074170   5.410212   6.047192
    33  H    4.412142   4.088779   5.444396   6.645346   6.967619
    34  H    5.344043   4.410440   5.289854   6.730689   7.158028
    35  H    5.421597   4.460273   5.423424   6.644500   6.695590
    36  H    4.156231   2.848270   3.177287   4.640354   5.206257
    37  H    5.482477   4.114567   4.416528   5.664791   5.812130
    38  H    4.218795   2.829737   2.745499   3.554360   3.403613
    39  H    4.631923   3.462165   4.010608   4.809203   4.435933
                    6          7          8          9         10
     6  C    0.000000
     7  N    1.316085   0.000000
     8  N    2.155761   1.381286   0.000000
     9  C    2.117050   2.157077   1.311391   0.000000
    10  O    1.370164   2.237775   2.231067   1.362616   0.000000
    11  N    3.380279   3.475246   2.402493   1.335459   2.294870
    12  C    3.811663   4.047510   4.940748   5.183744   4.622875
    13  C    5.300565   5.373558   6.262107   6.631768   6.158676
    14  C    6.271089   6.388126   7.060697   7.297031   6.894108
    15  C    6.170441   6.135949   6.528328   6.763481   6.611126
    16  C    4.942123   4.975432   5.224620   5.326515   5.212708
    17  C    3.677346   3.631683   4.143980   4.434138   4.244736
    18  H    5.257448   6.183315   7.131145   6.859871   5.735036
    19  H    4.603484   5.307692   6.472685   6.501796   5.468721
    20  H    5.783060   6.403882   7.417862   7.415508   6.491091
    21  H    2.870413   3.704761   4.115572   3.635841   2.825420
    22  H    4.062786   5.109426   5.677673   5.096808   4.029992
    23  H    2.787635   4.093060   4.691666   3.985454   2.639886
    24  H    3.445535   4.593122   5.564698   5.200822   3.912563
    25  H    2.094173   3.062620   4.099771   3.973228   2.877692
    26  H    2.119584   2.702639   3.997309   4.219220   3.336700
    27  H    3.750426   4.131868   3.243852   2.014555   2.460382
    28  H    4.112036   3.932437   2.654406   2.004266   3.185878
    29  H    3.336970   3.482663   4.590915   4.987143   4.402762
    30  H    5.523576   5.335080   6.208896   6.781815   6.482369
    31  H    5.793743   5.970476   6.995670   7.347174   6.732052
    32  H    6.435339   6.762357   7.431368   7.485990   6.937189
    33  H    7.263264   7.304836   8.003950   8.319554   7.948060
    34  H    7.040367   7.064297   7.345037   7.472298   7.338630
    35  H    6.480226   6.222902   6.584584   7.009481   7.017328
    36  H    5.021513   5.317535   5.539856   5.383518   5.097878
    37  H    5.247219   5.117110   5.088845   5.209503   5.360739
    38  H    2.834482   2.855340   3.204966   3.363515   3.225625
    39  H    4.017549   3.605548   4.103246   4.694547   4.732952
                   11         12         13         14         15
    11  N    0.000000
    12  C    6.233549   0.000000
    13  C    7.663430   1.551834   0.000000
    14  C    8.148785   2.561424   1.530359   0.000000
    15  C    7.460164   3.007754   2.525606   1.526492   0.000000
    16  C    5.961482   2.561233   2.934786   2.532141   1.525659
    17  C    5.343415   1.548550   2.474706   2.932300   2.523859
    18  H    7.738008   3.420250   3.990124   4.467266   5.423980
    19  H    7.598786   2.726229   3.269888   4.308639   5.341097
    20  H    8.396125   2.802991   2.690559   3.180043   4.445942
    21  H    4.341605   2.734304   4.151535   4.522831   4.406944
    22  H    5.722995   3.380635   4.539358   4.796620   5.084028
    23  H    4.696567   4.351953   5.799663   6.505664   6.716913
    24  H    6.141155   3.800843   5.014186   5.902984   6.494496
    25  H    5.082649   4.517230   5.884884   7.040948   7.356442
    26  H    5.479403   2.980675   4.238519   5.507972   5.914162
    27  H    1.011232   6.695467   8.175027   8.632073   8.016567
    28  H    1.012773   6.952416   8.323186   8.802274   8.011792
    29  H    6.175990   1.094693   2.145041   3.474621   3.957018
    30  H    7.854985   2.169918   1.098784   2.150113   2.777430
    31  H    8.433057   2.206043   1.094740   2.165187   3.473231
    32  H    8.272289   2.845492   2.167307   1.096290   2.157301
    33  H    9.186809   3.504272   2.159907   1.095946   2.153688
    34  H    8.030954   3.975317   3.471876   2.160551   1.095756
    35  H    7.741108   3.470834   2.832884   2.151634   1.097291
    36  H    5.903610   2.848177   3.396642   2.861898   2.157925
    37  H    5.674891   3.502043   3.905612   3.470107   2.153664
    38  H    4.260529   2.205442   3.457520   3.955636   3.464290
    39  H    5.655572   2.165789   2.689350   3.284816   2.778702
                   16         17         18         19         20
    16  C    0.000000
    17  C    1.528652   0.000000
    18  H    5.093343   4.661854   0.000000
    19  H    5.069971   4.200929   1.776574   0.000000
    20  H    4.566565   4.208283   1.737887   1.779064   0.000000
    21  H    3.144674   2.623342   3.600916   3.845971   4.208055
    22  H    4.157533   3.869584   2.383840   3.338768   3.521902
    23  H    5.568030   4.747320   3.722875   3.935259   5.002166
    24  H    5.667033   4.737242   2.507147   2.423569   3.757669
    25  H    6.336158   5.039951   4.758208   3.976436   5.567708
    26  H    5.093820   3.696622   4.036794   2.859571   4.342279
    27  H    6.498827   5.938337   7.763426   7.788954   8.611926
    28  H    6.542581   5.948198   8.681503   8.458714   9.254685
    29  H    3.481025   2.154210   3.722185   2.548193   3.219762
    30  H    3.284179   2.690055   4.996689   4.036970   3.691750
    31  H    3.961918   3.456965   3.679351   2.812823   2.133046
    32  H    2.858882   3.389693   3.826741   4.083106   2.687560
    33  H    3.469649   3.905206   5.215016   4.990497   3.724041
    34  H    2.158628   3.469106   5.954925   6.129839   5.031877
    35  H    2.150719   2.832925   6.271880   5.937340   5.175781
    36  H    1.096180   2.164822   4.602526   4.946630   4.351426
    37  H    1.096119   2.157194   6.108680   6.079405   5.658904
    38  H    2.154474   1.091712   4.877102   4.492676   4.792052
    39  H    2.149184   1.098885   5.538151   4.808372   4.891242
                   21         22         23         24         25
    21  H    0.000000
    22  H    1.711394   0.000000
    23  H    2.476070   2.336149   0.000000
    24  H    3.075762   2.474332   1.740559   0.000000
    25  H    3.866858   4.257792   2.439249   2.421123   0.000000
    26  H    3.331818   3.905284   3.058443   2.480128   1.746526
    27  H    4.503790   5.657307   4.482572   6.080866   5.152752
    28  H    5.251819   6.696613   5.678961   7.082079   5.853701
    29  H    3.156669   3.853946   4.250075   3.565211   3.834152
    30  H    4.826692   5.458246   6.481041   5.747213   6.240261
    31  H    4.736867   4.802533   6.025755   4.947233   6.003447
    32  H    4.317930   4.235045   6.194972   5.575756   7.048296
    33  H    5.614760   5.813425   7.538120   6.817195   7.964931
    34  H    5.005817   5.535738   7.367586   7.222753   8.247709
    35  H    5.128220   5.986576   7.410559   7.177497   7.766310
    36  H    2.675769   3.424468   5.106988   5.305259   6.280610
    37  H    3.695892   4.912049   6.137987   6.468702   6.889603
    38  H    2.067364   3.633114   4.108922   4.450471   4.463851
    39  H    3.619169   4.923291   5.572591   5.508466   5.460479
                   26         27         28         29         30
    26  H    0.000000
    27  H    5.794867   0.000000
    28  H    6.218120   1.705624   0.000000
    29  H    2.144558   6.664198   6.862631   0.000000
    30  H    4.521224   8.474522   8.410258   2.415729   0.000000
    31  H    4.373471   8.885026   9.137246   2.512640   1.740255
    32  H    5.658314   8.637679   9.007963   3.836816   3.062443
    33  H    6.369296   9.699666   9.806295   4.286335   2.462087
    34  H    6.880706   8.537839   8.574206   4.981147   3.791388
    35  H    6.244430   8.404123   8.183705   4.228369   2.640035
    36  H    5.221398   6.284383   6.589027   3.845640   4.012440
    37  H    5.754288   6.285205   6.125612   4.292249   4.057053
    38  H    3.412925   4.852133   4.898110   2.533262   3.689993
    39  H    4.022319   6.382071   6.112132   2.420489   2.435470
                   31         32         33         34         35
    31  H    0.000000
    32  H    2.507355   0.000000
    33  H    2.472433   1.759356   0.000000
    34  H    4.302135   2.440696   2.516335   0.000000
    35  H    3.798638   3.052577   2.425057   1.760218   0.000000
    36  H    4.276282   2.756602   3.860008   2.439337   3.052506
    37  H    4.970803   3.858763   4.280478   2.516455   2.423121
    38  H    4.346946   4.264841   4.966394   4.290462   3.791997
    39  H    3.688415   4.009226   4.061196   3.792029   2.643238
                   36         37         38         39
    36  H    0.000000
    37  H    1.759334   0.000000
    38  H    2.494618   2.459134   0.000000
    39  H    3.060691   2.457896   1.737362   0.000000
 Stoichiometry    C12H22N4O
 Framework group  C1[X(C12H22N4O)]
 Deg. of freedom   111
 Full point group                 C1      NOp   1
 Largest Abelian subgroup         C1      NOp   1
 Largest concise Abelian subgroup C1      NOp   1
                         Standard orientation:                         
 ---------------------------------------------------------------------
 Center     Atomic      Atomic             Coordinates (Angstroms)
 Number     Number       Type             X           Y           Z
 ---------------------------------------------------------------------
      1          6           0       -2.230063    2.395572   -0.246947
      2          7           0       -1.569503    1.118148   -0.522291
      3          6           0       -0.266515    1.312255   -1.175441
      4          6           0        0.758802    2.281648   -0.556525
      5          6           0        1.409069    1.862442    0.759411
      6          6           0        2.159199    0.587049    0.689659
      7          7           0        2.263076   -0.365109    1.592259
      8          7           0        3.061940   -1.340985    1.028847
      9          6           0        3.386700   -0.910335   -0.166484
     10          8           0        2.871041    0.318685   -0.449907
     11          7           0        4.138077   -1.475410   -1.114942
     12          6           0       -1.627136    0.156760    0.604207
     13          6           0       -3.079859   -0.120245    1.074366
     14          6           0       -3.907860   -0.847968    0.012842
     15          6           0       -3.255254   -2.165795   -0.396568
     16          6           0       -1.792833   -1.984327   -0.791574
     17          6           0       -1.013011   -1.228299    0.284099
     18          1           0       -2.109101    3.090629   -1.086422
     19          1           0       -1.835595    2.874521    0.655620
     20          1           0       -3.311130    2.272090   -0.134912
     21          1           0        0.213301    0.357563   -1.407979
     22          1           0       -0.493504    1.715372   -2.173256
     23          1           0        1.549953    2.439193   -1.302648
     24          1           0        0.300898    3.268520   -0.418554
     25          1           0        2.113555    2.647451    1.061441
     26          1           0        0.661834    1.811808    1.555972
     27          1           0        4.525672   -0.871827   -1.827716
     28          1           0        4.745034   -2.230909   -0.820776
     29          1           0       -1.087638    0.575179    1.459906
     30          1           0       -3.044545   -0.742618    1.979203
     31          1           0       -3.589114    0.798648    1.382183
     32          1           0       -4.033199   -0.210116   -0.869930
     33          1           0       -4.912153   -1.046769    0.403956
     34          1           0       -3.810928   -2.614188   -1.227743
     35          1           0       -3.315315   -2.871487    0.441548
     36          1           0       -1.731643   -1.448719   -1.746033
     37          1           0       -1.334760   -2.967265   -0.951199
     38          1           0        0.035757   -1.155234   -0.010152
     39          1           0       -1.008278   -1.830367    1.203360
 ---------------------------------------------------------------------
 Rotational constants (GHZ):           0.7443629           0.2910935           0.2438235
 Standard basis: 6-31G(d) (6D, 7F)
 There are   299 symmetry adapted cartesian basis functions of A   symmetry.
 There are   299 symmetry adapted basis functions of A   symmetry.
   299 basis functions,   564 primitive gaussians,   299 cartesian basis functions
    65 alpha electrons       65 beta electrons
       nuclear repulsion energy      1313.7845572211 Hartrees.
 NAtoms=   39 NActive=   39 NUniq=   39 SFac= 1.00D+00 NAtFMM=   60 NAOKFM=F Big=F
 Integral buffers will be    131072 words long.
 Raffenetti 2 integral format.
 Two-electron integral symmetry is turned on.
 Nuclear repulsion after empirical dispersion term =     1313.7098177068 Hartrees.
 One-electron integrals computed using PRISM.
 NBasis=   299 RedAO= T EigKep=  1.26D-03  NBF=   299
 NBsUse=   299 1.00D-06 EigRej= -1.00D+00 NBFU=   299
 ExpMin= 1.61D-01 ExpMax= 5.48D+03 ExpMxC= 8.25D+02 IAcc=3 IRadAn=         5 AccDes= 0.00D+00
 Harris functional with IExCor=  402 and IRadAn=       5 diagonalized for initial guess.
 HarFok:  IExCor=  402 AccDes= 0.00D+00 IRadAn=         5 IDoV= 1 UseB2=F ITyADJ=14
 ICtDFT=  3500011 ScaDFX=  1.000000  1.000000  1.000000  1.000000
 FoFCou: FMM=F IPFlag=           0 FMFlag=      100000 FMFlg1=           0
         NFxFlg=           0 DoJE=T BraDBF=F KetDBF=T FulRan=T
         wScrn=  0.000000 ICntrl=       500 IOpCl=  0 I1Cent=   200000004 NGrid=           0
         NMat0=    1 NMatS0=      1 NMatT0=    0 NMatD0=    1 NMtDS0=    0 NMtDT0=    0
 Petite list used in FoFCou.
 Requested convergence on RMS density matrix=1.00D-08 within  32 cycles.
 Requested convergence on MAX density matrix=1.00D-06.
 Requested convergence on             energy=1.00D-06.
 No special actions if energy rises.
 Integral accuracy reduced to 1.0D-05 until final iterations.
 Initial convergence to 1.0D-05 achieved.  Increase integral accuracy.
 SCF Done:  E(RB3LYP) =  -764.789188312     A.U. after   14 cycles
            NFock= 14  Conv=0.48D-08     -V/T= 2.0095
 QCSCF skips out because SCF is already converged.
 DoSCS=F DFT=T ScalE2(SS,OS)=  1.000000  1.000000
 Range of M.O.s used for correlation:     1   299
 NBasis=   299 NAE=    65 NBE=    65 NFC=     0 NFV=     0
 NROrb=    299 NOA=    65 NOB=    65 NVA=   234 NVB=   234
 Symmetrizing basis deriv contribution to polar:
 IMax=3 JMax=2 DiffMx= 0.00D+00
 G2DrvN: will do    40 centers at a time, making    1 passes.
 Calling FoFCou, ICntrl=  3107 FMM=F I1Cent=   0 AccDes= 0.00D+00.
 End of G2Drv F.D. properties file   721 does not exist.
 End of G2Drv F.D. properties file   722 does not exist.
 End of G2Drv F.D. properties file   788 does not exist.
          IDoAtm=111111111111111111111111111111111111111
          Differentiating once with respect to nuclear coordinates.
 Keep R1 ints in memory in canonical form, NReq=1019301550.
          There are   120 degrees of freedom in the 1st order CPHF.  IDoFFX=6 NUNeed=     0.
    114 vectors produced by pass  0 Test12= 1.52D-14 1.00D-09 XBig12= 1.44D-01 8.18D-02.
 AX will form   114 AO Fock derivatives at one time.
    114 vectors produced by pass  1 Test12= 1.52D-14 1.00D-09 XBig12= 1.38D-02 2.86D-02.
    114 vectors produced by pass  2 Test12= 1.52D-14 1.00D-09 XBig12= 1.64D-04 2.96D-03.
    114 vectors produced by pass  3 Test12= 1.52D-14 1.00D-09 XBig12= 7.44D-07 8.70D-05.
    114 vectors produced by pass  4 Test12= 1.52D-14 1.00D-09 XBig12= 1.06D-09 3.08D-06.
     64 vectors produced by pass  5 Test12= 1.52D-14 1.00D-09 XBig12= 9.44D-13 9.80D-08.
      7 vectors produced by pass  6 Test12= 1.52D-14 1.00D-09 XBig12= 6.90D-16 2.04D-09.
 InvSVY:  IOpt=1 It=  1 EMax= 6.66D-16
 Solved reduced A of dimension   641 with   120 vectors.
 End of Minotr F.D. properties file   721 does not exist.
 End of Minotr F.D. properties file   722 does not exist.
 End of Minotr F.D. properties file   788 does not exist.

 **********************************************************************

            Population analysis using the SCF density.

 **********************************************************************

 Orbital symmetries:
       Occupied  (A) (A) (A) (A) (A) (A) (A) (A) (A) (A) (A) (A)
                 (A) (A) (A) (A) (A) (A) (A) (A) (A) (A) (A) (A)
                 (A) (A) (A) (A) (A) (A) (A) (A) (A) (A) (A) (A)
                 (A) (A) (A) (A) (A) (A) (A) (A) (A) (A) (A) (A)
                 (A) (A) (A) (A) (A) (A) (A) (A) (A) (A) (A) (A)
                 (A) (A) (A) (A) (A)
       Virtual   (A) (A) (A) (A) (A) (A) (A) (A) (A) (A) (A) (A)
                 (A) (A) (A) (A) (A) (A) (A) (A) (A) (A) (A) (A)
                 (A) (A) (A) (A) (A) (A) (A) (A) (A) (A) (A) (A)
                 (A) (A) (A) (A) (A) (A) (A) (A) (A) (A) (A) (A)
                 (A) (A) (A) (A) (A) (A) (A) (A) (A) (A) (A) (A)
                 (A) (A) (A) (A) (A) (A) (A) (A) (A) (A) (A) (A)
                 (A) (A) (A) (A) (A) (A) (A) (A) (A) (A) (A) (A)
                 (A) (A) (A) (A) (A) (A) (A) (A) (A) (A) (A) (A)
                 (A) (A) (A) (A) (A) (A) (A) (A) (A) (A) (A) (A)
                 (A) (A) (A) (A) (A) (A) (A) (A) (A) (A) (A) (A)
                 (A) (A) (A) (A) (A) (A) (A) (A) (A) (A) (A) (A)
                 (A) (A) (A) (A) (A) (A) (A) (A) (A) (A) (A) (A)
                 (A) (A) (A) (A) (A) (A) (A) (A) (A) (A) (A) (A)
                 (A) (A) (A) (A) (A) (A) (A) (A) (A) (A) (A) (A)
                 (A) (A) (A) (A) (A) (A) (A) (A) (A) (A) (A) (A)
                 (A) (A) (A) (A) (A) (A) (A) (A) (A) (A) (A) (A)
                 (A) (A) (A) (A) (A) (A) (A) (A) (A) (A) (A) (A)
                 (A) (A) (A) (A) (A) (A) (A) (A) (A) (A) (A) (A)
                 (A) (A) (A) (A) (A) (A) (A) (A) (A) (A) (A) (A)
                 (A) (A) (A) (A) (A) (A)
 The electronic state is 1-A.
 Alpha  occ. eigenvalues --  -19.23435 -14.37571 -14.34489 -14.33214 -14.31589
 Alpha  occ. eigenvalues --  -10.31054 -10.26932 -10.20346 -10.20159 -10.20147
 Alpha  occ. eigenvalues --  -10.19716 -10.18792 -10.16816 -10.16409 -10.16391
 Alpha  occ. eigenvalues --  -10.16346 -10.16215  -1.15522  -0.96811  -0.95472
 Alpha  occ. eigenvalues --   -0.90709  -0.82247  -0.80858  -0.76942  -0.72920
 Alpha  occ. eigenvalues --   -0.72625  -0.70225  -0.66117  -0.65046  -0.61784
 Alpha  occ. eigenvalues --   -0.59361  -0.58796  -0.56554  -0.54762  -0.52827
 Alpha  occ. eigenvalues --   -0.52228  -0.50120  -0.47924  -0.47569  -0.46709
 Alpha  occ. eigenvalues --   -0.45399  -0.44348  -0.43449  -0.43180  -0.41421
 Alpha  occ. eigenvalues --   -0.40735  -0.40490  -0.37732  -0.36947  -0.36850
 Alpha  occ. eigenvalues --   -0.36432  -0.36194  -0.35187  -0.34582  -0.34072
 Alpha  occ. eigenvalues --   -0.33419  -0.32792  -0.32298  -0.30860  -0.30658
 Alpha  occ. eigenvalues --   -0.28828  -0.28117  -0.25991  -0.21851  -0.19567
 Alpha virt. eigenvalues --    0.01048   0.05158   0.06935   0.07360   0.10077
 Alpha virt. eigenvalues --    0.10668   0.11012   0.11731   0.12649   0.13705
 Alpha virt. eigenvalues --    0.14020   0.15035   0.15668   0.16494   0.17170
 Alpha virt. eigenvalues --    0.17232   0.17763   0.18069   0.18651   0.18816
 Alpha virt. eigenvalues --    0.19551   0.20252   0.20766   0.21504   0.22197
 Alpha virt. eigenvalues --    0.22330   0.23362   0.24484   0.24793   0.25793
 Alpha virt. eigenvalues --    0.26411   0.26838   0.27444   0.27924   0.28948
 Alpha virt. eigenvalues --    0.29933   0.30538   0.31771   0.33499   0.35711
 Alpha virt. eigenvalues --    0.40194   0.45504   0.49204   0.50629   0.52470
 Alpha virt. eigenvalues --    0.52859   0.54305   0.54406   0.54807   0.55605
 Alpha virt. eigenvalues --    0.56179   0.56503   0.58034   0.58175   0.59102
 Alpha virt. eigenvalues --    0.59508   0.61758   0.61954   0.62687   0.64636
 Alpha virt. eigenvalues --    0.65890   0.67044   0.67492   0.68492   0.69503
 Alpha virt. eigenvalues --    0.70532   0.71122   0.71508   0.72121   0.74145
 Alpha virt. eigenvalues --    0.74701   0.75492   0.76007   0.78264   0.79570
 Alpha virt. eigenvalues --    0.80127   0.81796   0.82529   0.83803   0.84077
 Alpha virt. eigenvalues --    0.84275   0.85219   0.85917   0.86588   0.87043
 Alpha virt. eigenvalues --    0.87750   0.88355   0.89426   0.90037   0.90873
 Alpha virt. eigenvalues --    0.91663   0.92073   0.92525   0.93609   0.94135
 Alpha virt. eigenvalues --    0.94532   0.94817   0.96160   0.96370   0.97378
 Alpha virt. eigenvalues --    0.98805   0.99387   0.99750   1.01043   1.01312
 Alpha virt. eigenvalues --    1.03122   1.03880   1.04487   1.06702   1.08492
 Alpha virt. eigenvalues --    1.10930   1.13320   1.15235   1.16651   1.17518
 Alpha virt. eigenvalues --    1.20757   1.23124   1.25539   1.28811   1.32915
 Alpha virt. eigenvalues --    1.33661   1.36045   1.36670   1.37402   1.38527
 Alpha virt. eigenvalues --    1.39538   1.40209   1.42863   1.45539   1.46917
 Alpha virt. eigenvalues --    1.51254   1.54647   1.56436   1.57441   1.59051
 Alpha virt. eigenvalues --    1.61496   1.61689   1.65217   1.67840   1.70902
 Alpha virt. eigenvalues --    1.72275   1.73390   1.73709   1.75496   1.76393
 Alpha virt. eigenvalues --    1.78811   1.79810   1.80270   1.83946   1.86649
 Alpha virt. eigenvalues --    1.87530   1.89813   1.92022   1.92804   1.93449
 Alpha virt. eigenvalues --    1.94823   1.95631   1.96440   1.97805   1.98799
 Alpha virt. eigenvalues --    1.99704   2.00575   2.04649   2.05652   2.06377
 Alpha virt. eigenvalues --    2.07646   2.09212   2.10883   2.12125   2.14827
 Alpha virt. eigenvalues --    2.16845   2.17115   2.18352   2.20821   2.21467
 Alpha virt. eigenvalues --    2.22680   2.24557   2.27012   2.27717   2.31752
 Alpha virt. eigenvalues --    2.32265   2.33609   2.33955   2.37411   2.38864
 Alpha virt. eigenvalues --    2.39080   2.40006   2.41136   2.41883   2.43078
 Alpha virt. eigenvalues --    2.45308   2.45979   2.47140   2.51046   2.53297
 Alpha virt. eigenvalues --    2.53397   2.55959   2.57747   2.59793   2.62389
 Alpha virt. eigenvalues --    2.63733   2.66183   2.67275   2.70133   2.71524
 Alpha virt. eigenvalues --    2.73179   2.74300   2.75225   2.77230   2.84206
 Alpha virt. eigenvalues --    2.85561   2.86634   2.88599   2.90110   3.02303
 Alpha virt. eigenvalues --    3.10922   3.24803   3.79997   3.90231   4.03439
 Alpha virt. eigenvalues --    4.09491   4.15411   4.18677   4.20918   4.28355
 Alpha virt. eigenvalues --    4.29905   4.32840   4.37123   4.41345   4.50309
 Alpha virt. eigenvalues --    4.56826   4.58436   4.61260   4.68055
          Condensed to atoms (all electrons):
               1          2          3          4          5          6
     1  C    4.987793   0.323906  -0.057362  -0.008397  -0.000507   0.000062
     2  N    0.323906   6.832320   0.352478  -0.057941   0.003384  -0.001047
     3  C   -0.057362   0.352478   4.928426   0.331887  -0.040350   0.001395
     4  C   -0.008397  -0.057941   0.331887   5.172565   0.323421  -0.033083
     5  C   -0.000507   0.003384  -0.040350   0.323421   5.144471   0.384198
     6  C    0.000062  -0.001047   0.001395  -0.033083   0.384198   4.639425
     7  N   -0.000001  -0.000021   0.000373   0.001830  -0.057401   0.445357
     8  N    0.000000   0.000001  -0.000022  -0.000195   0.007717  -0.088323
     9  C    0.000000  -0.000000  -0.000099   0.000305   0.001975  -0.078121
    10  O   -0.000001   0.000035  -0.002588  -0.000616  -0.057083   0.271880
    11  N   -0.000000  -0.000000  -0.000001  -0.000002  -0.000340   0.000407
    12  C   -0.046843   0.304088  -0.047815  -0.004636   0.000431  -0.000281
    13  C   -0.004260  -0.054947   0.004231  -0.000231   0.000072   0.000005
    14  C   -0.001700   0.000044   0.000042   0.000014  -0.000003  -0.000000
    15  C    0.000080  -0.002388  -0.000013  -0.000006   0.000001  -0.000001
    16  C   -0.000044  -0.000513  -0.001065   0.000127  -0.000028   0.000064
    17  C    0.005097  -0.049349  -0.005784  -0.000958   0.000547  -0.000045
    18  H    0.373761  -0.034964  -0.002632  -0.003657   0.000238  -0.000006
    19  H    0.354388  -0.051082  -0.004793   0.006270  -0.000966   0.000046
    20  H    0.380967  -0.040828   0.004548  -0.000056   0.000014  -0.000000
    21  H    0.005905  -0.034751   0.376375  -0.049475  -0.007398   0.003076
    22  H   -0.005312  -0.048924   0.372473  -0.056635   0.006246  -0.000117
    23  H    0.000043   0.004203  -0.026037   0.352129  -0.033247  -0.010661
    24  H    0.005769  -0.006577  -0.036929   0.370335  -0.035453   0.004530
    25  H   -0.000015  -0.000122   0.004597  -0.036176   0.358399  -0.037669
    26  H    0.000089   0.001657  -0.005456  -0.031214   0.367989  -0.032050
    27  H    0.000000   0.000000  -0.000000   0.000005  -0.000012   0.000049
    28  H    0.000000  -0.000000  -0.000000   0.000000   0.000003   0.000094
    29  H   -0.007386  -0.063256  -0.001953   0.005137  -0.004801   0.000490
    30  H   -0.000006   0.003911  -0.000114   0.000006   0.000001  -0.000000
    31  H    0.003201  -0.005339  -0.000030  -0.000015   0.000004   0.000000
    32  H   -0.000016   0.009065  -0.000064   0.000011  -0.000000   0.000000
    33  H   -0.000014   0.000138   0.000005   0.000000   0.000000   0.000000
    34  H    0.000001  -0.000032   0.000001  -0.000000  -0.000000   0.000000
    35  H   -0.000002   0.000041  -0.000001   0.000000   0.000000  -0.000000
    36  H   -0.000138   0.006924   0.001094   0.000091  -0.000002  -0.000003
    37  H    0.000002   0.000125  -0.000020   0.000001  -0.000000  -0.000001
    38  H   -0.000051  -0.004335   0.000634  -0.000525  -0.000420   0.002192
    39  H   -0.000137   0.003635   0.000217   0.000024  -0.000018   0.000008
               7          8          9         10         11         12
     1  C   -0.000001   0.000000   0.000000  -0.000001  -0.000000  -0.046843
     2  N   -0.000021   0.000001  -0.000000   0.000035  -0.000000   0.304088
     3  C    0.000373  -0.000022  -0.000099  -0.002588  -0.000001  -0.047815
     4  C    0.001830  -0.000195   0.000305  -0.000616  -0.000002  -0.004636
     5  C   -0.057401   0.007717   0.001975  -0.057083  -0.000340   0.000431
     6  C    0.445357  -0.088323  -0.078121   0.271880   0.000407  -0.000281
     7  N    6.832834   0.251925  -0.077489  -0.075066   0.007484  -0.000410
     8  N    0.251925   6.895644   0.455495  -0.083754  -0.078610   0.000016
     9  C   -0.077489   0.455495   4.377876   0.321535   0.321460  -0.000011
    10  O   -0.075066  -0.083754   0.321535   8.142603  -0.065755  -0.000005
    11  N    0.007484  -0.078610   0.321460  -0.065755   6.989010  -0.000000
    12  C   -0.000410   0.000016  -0.000011  -0.000005  -0.000000   4.850345
    13  C    0.000004  -0.000000  -0.000000  -0.000000   0.000000   0.366326
    14  C   -0.000000   0.000000   0.000000   0.000000  -0.000000  -0.031989
    15  C   -0.000001   0.000000   0.000000  -0.000000  -0.000000  -0.012842
    16  C    0.000076  -0.000009  -0.000014   0.000000   0.000000  -0.031836
    17  C   -0.000466  -0.000367   0.000065  -0.000239   0.000001   0.375306
    18  H   -0.000000   0.000000  -0.000000   0.000000  -0.000000   0.005287
    19  H   -0.000001  -0.000000   0.000000  -0.000000   0.000000  -0.008530
    20  H   -0.000000   0.000000  -0.000000   0.000000  -0.000000  -0.002868
    21  H   -0.000413   0.000003   0.000335   0.003895  -0.000020  -0.007389
    22  H   -0.000001  -0.000000   0.000001   0.000038   0.000000   0.006460
    23  H    0.000065   0.000032   0.000011   0.005052  -0.000004   0.000016
    24  H   -0.000067   0.000003   0.000003   0.000141  -0.000000  -0.000303
    25  H   -0.000586  -0.000065   0.000124  -0.000093  -0.000006   0.000032
    26  H    0.000237   0.000031   0.000086   0.002539   0.000002  -0.000606
    27  H   -0.000178   0.003117  -0.013573  -0.000279   0.311506   0.000000
    28  H   -0.000023   0.001541  -0.020801   0.003141   0.317709   0.000000
    29  H    0.000980  -0.000006  -0.000002  -0.000000   0.000000   0.358933
    30  H   -0.000001  -0.000000  -0.000000   0.000000   0.000000  -0.032512
    31  H    0.000000   0.000000  -0.000000   0.000000   0.000000  -0.031965
    32  H    0.000000   0.000000  -0.000000  -0.000000   0.000000  -0.007664
    33  H   -0.000000  -0.000000   0.000000  -0.000000   0.000000   0.004802
    34  H    0.000000  -0.000000  -0.000000   0.000000   0.000000   0.000048
    35  H    0.000000  -0.000000  -0.000000   0.000000   0.000000  -0.001226
    36  H    0.000001   0.000000  -0.000001  -0.000001   0.000000  -0.007624
    37  H    0.000000   0.000002   0.000001  -0.000000  -0.000000   0.004912
    38  H    0.000645   0.001027   0.001307   0.000206  -0.000090  -0.032194
    39  H    0.000385   0.000014  -0.000004   0.000002   0.000000  -0.031467
              13         14         15         16         17         18
     1  C   -0.004260  -0.001700   0.000080  -0.000044   0.005097   0.373761
     2  N   -0.054947   0.000044  -0.002388  -0.000513  -0.049349  -0.034964
     3  C    0.004231   0.000042  -0.000013  -0.001065  -0.005784  -0.002632
     4  C   -0.000231   0.000014  -0.000006   0.000127  -0.000958  -0.003657
     5  C    0.000072  -0.000003   0.000001  -0.000028   0.000547   0.000238
     6  C    0.000005  -0.000000  -0.000001   0.000064  -0.000045  -0.000006
     7  N    0.000004  -0.000000  -0.000001   0.000076  -0.000466  -0.000000
     8  N   -0.000000   0.000000   0.000000  -0.000009  -0.000367   0.000000
     9  C   -0.000000   0.000000   0.000000  -0.000014   0.000065  -0.000000
    10  O   -0.000000   0.000000  -0.000000   0.000000  -0.000239   0.000000
    11  N    0.000000  -0.000000  -0.000000   0.000000   0.000001  -0.000000
    12  C    0.366326  -0.031989  -0.012842  -0.031836   0.375306   0.005287
    13  C    5.106251   0.364319  -0.041226  -0.022822  -0.029190   0.000356
    14  C    0.364319   4.998389   0.387300  -0.042079  -0.022472  -0.000028
    15  C   -0.041226   0.387300   4.983980   0.384920  -0.040630   0.000005
    16  C   -0.022822  -0.042079   0.384920   5.012105   0.359360  -0.000002
    17  C   -0.029190  -0.022472  -0.040630   0.359360   5.088124  -0.000139
    18  H    0.000356  -0.000028   0.000005  -0.000002  -0.000139   0.579646
    19  H   -0.002233   0.000298  -0.000016   0.000033  -0.000368  -0.042384
    20  H    0.002059   0.000426   0.000025  -0.000043   0.000183  -0.027640
    21  H    0.000199  -0.000030   0.000014  -0.000235   0.004049   0.000203
    22  H   -0.000129  -0.000012   0.000016  -0.000035   0.000344   0.006149
    23  H    0.000004  -0.000000   0.000000  -0.000001   0.000006   0.000048
    24  H   -0.000006   0.000000   0.000000  -0.000001  -0.000006   0.001338
    25  H   -0.000001   0.000000  -0.000000   0.000000   0.000003  -0.000006
    26  H   -0.000022   0.000002  -0.000000   0.000006  -0.000110  -0.000011
    27  H   -0.000000  -0.000000   0.000000  -0.000000  -0.000000   0.000000
    28  H   -0.000000   0.000000   0.000000  -0.000000  -0.000000  -0.000000
    29  H   -0.057737   0.006571  -0.000336   0.006611  -0.054970  -0.000376
    30  H    0.366249  -0.040169  -0.004585  -0.000669  -0.005009  -0.000005
    31  H    0.363729  -0.036110   0.005009   0.000140   0.005060  -0.000010
    32  H   -0.039908   0.375599  -0.038375  -0.003189  -0.000933  -0.000106
    33  H   -0.035334   0.368198  -0.035313   0.005263   0.000021   0.000000
    34  H    0.005184  -0.034452   0.368726  -0.034269   0.005096  -0.000000
    35  H   -0.003717  -0.042926   0.373927  -0.042922  -0.003515   0.000000
    36  H   -0.000892  -0.003311  -0.038300   0.374336  -0.039196   0.000001
    37  H    0.000009   0.005296  -0.035299   0.369084  -0.035155  -0.000000
    38  H    0.005314   0.000114   0.004977  -0.036967   0.363656   0.000001
    39  H   -0.005293  -0.000666  -0.004369  -0.041197   0.369742   0.000002
              19         20         21         22         23         24
     1  C    0.354388   0.380967   0.005905  -0.005312   0.000043   0.005769
     2  N   -0.051082  -0.040828  -0.034751  -0.048924   0.004203  -0.006577
     3  C   -0.004793   0.004548   0.376375   0.372473  -0.026037  -0.036929
     4  C    0.006270  -0.000056  -0.049475  -0.056635   0.352129   0.370335
     5  C   -0.000966   0.000014  -0.007398   0.006246  -0.033247  -0.035453
     6  C    0.000046  -0.000000   0.003076  -0.000117  -0.010661   0.004530
     7  N   -0.000001  -0.000000  -0.000413  -0.000001   0.000065  -0.000067
     8  N   -0.000000   0.000000   0.000003  -0.000000   0.000032   0.000003
     9  C    0.000000  -0.000000   0.000335   0.000001   0.000011   0.000003
    10  O   -0.000000   0.000000   0.003895   0.000038   0.005052   0.000141
    11  N    0.000000  -0.000000  -0.000020   0.000000  -0.000004  -0.000000
    12  C   -0.008530  -0.002868  -0.007389   0.006460   0.000016  -0.000303
    13  C   -0.002233   0.002059   0.000199  -0.000129   0.000004  -0.000006
    14  C    0.000298   0.000426  -0.000030  -0.000012  -0.000000   0.000000
    15  C   -0.000016   0.000025   0.000014   0.000016   0.000000   0.000000
    16  C    0.000033  -0.000043  -0.000235  -0.000035  -0.000001  -0.000001
    17  C   -0.000368   0.000183   0.004049   0.000344   0.000006  -0.000006
    18  H   -0.042384  -0.027640   0.000203   0.006149   0.000048   0.001338
    19  H    0.660187  -0.047735  -0.000364  -0.001263  -0.000237   0.001352
    20  H   -0.047735   0.572936  -0.000144   0.000350   0.000005  -0.000140
    21  H   -0.000364  -0.000144   0.579848  -0.033374  -0.000761   0.005043
    22  H   -0.001263   0.000350  -0.033374   0.625644  -0.000981  -0.004511
    23  H   -0.000237   0.000005  -0.000761  -0.000981   0.606227  -0.036818
    24  H    0.001352  -0.000140   0.005043  -0.004511  -0.036818   0.595863
    25  H    0.000036  -0.000000  -0.000026  -0.000187  -0.005072  -0.002219
    26  H    0.001091  -0.000016  -0.000044  -0.000005   0.005225  -0.004017
    27  H    0.000000  -0.000000   0.000004   0.000000   0.000009  -0.000000
    28  H    0.000000  -0.000000  -0.000000   0.000000  -0.000000  -0.000000
    29  H    0.013703  -0.001414  -0.000629  -0.000507  -0.000132   0.000184
    30  H    0.000062  -0.000016  -0.000008   0.000003  -0.000000   0.000000
    31  H    0.000043   0.001689  -0.000002   0.000002   0.000000  -0.000000
    32  H    0.000142   0.000634  -0.000017  -0.000012  -0.000000   0.000000
    33  H    0.000003  -0.000130  -0.000000  -0.000001  -0.000000   0.000000
    34  H   -0.000000   0.000002   0.000000  -0.000000   0.000000   0.000000
    35  H   -0.000000   0.000003   0.000002   0.000000   0.000000  -0.000000
    36  H    0.000012  -0.000022   0.000902  -0.000162  -0.000002   0.000001
    37  H    0.000000  -0.000001  -0.000057  -0.000002  -0.000000   0.000000
    38  H   -0.000022   0.000002   0.003626  -0.000000   0.000018  -0.000012
    39  H    0.000008  -0.000004  -0.000070  -0.000006  -0.000000   0.000001
              25         26         27         28         29         30
     1  C   -0.000015   0.000089   0.000000   0.000000  -0.007386  -0.000006
     2  N   -0.000122   0.001657   0.000000  -0.000000  -0.063256   0.003911
     3  C    0.004597  -0.005456  -0.000000  -0.000000  -0.001953  -0.000114
     4  C   -0.036176  -0.031214   0.000005   0.000000   0.005137   0.000006
     5  C    0.358399   0.367989  -0.000012   0.000003  -0.004801   0.000001
     6  C   -0.037669  -0.032050   0.000049   0.000094   0.000490  -0.000000
     7  N   -0.000586   0.000237  -0.000178  -0.000023   0.000980  -0.000001
     8  N   -0.000065   0.000031   0.003117   0.001541  -0.000006  -0.000000
     9  C    0.000124   0.000086  -0.013573  -0.020801  -0.000002  -0.000000
    10  O   -0.000093   0.002539  -0.000279   0.003141  -0.000000   0.000000
    11  N   -0.000006   0.000002   0.311506   0.317709   0.000000   0.000000
    12  C    0.000032  -0.000606   0.000000   0.000000   0.358933  -0.032512
    13  C   -0.000001  -0.000022  -0.000000  -0.000000  -0.057737   0.366249
    14  C    0.000000   0.000002  -0.000000   0.000000   0.006571  -0.040169
    15  C   -0.000000  -0.000000   0.000000   0.000000  -0.000336  -0.004585
    16  C    0.000000   0.000006  -0.000000  -0.000000   0.006611  -0.000669
    17  C    0.000003  -0.000110  -0.000000  -0.000000  -0.054970  -0.005009
    18  H   -0.000006  -0.000011   0.000000  -0.000000  -0.000376  -0.000005
    19  H    0.000036   0.001091   0.000000   0.000000   0.013703   0.000062
    20  H   -0.000000  -0.000016  -0.000000  -0.000000  -0.001414  -0.000016
    21  H   -0.000026  -0.000044   0.000004  -0.000000  -0.000629  -0.000008
    22  H   -0.000187  -0.000005   0.000000   0.000000  -0.000507   0.000003
    23  H   -0.005072   0.005225   0.000009  -0.000000  -0.000132  -0.000000
    24  H   -0.002219  -0.004017  -0.000000  -0.000000   0.000184   0.000000
    25  H    0.586423  -0.031313  -0.000002  -0.000000   0.000229   0.000000
    26  H   -0.031313   0.532099   0.000000  -0.000000   0.006556  -0.000010
    27  H   -0.000002   0.000000   0.371719  -0.023253  -0.000000   0.000000
    28  H   -0.000000  -0.000000  -0.023253   0.363499  -0.000000   0.000000
    29  H    0.000229   0.006556  -0.000000  -0.000000   0.695825  -0.001487
    30  H    0.000000  -0.000010   0.000000   0.000000  -0.001487   0.608036
    31  H   -0.000000  -0.000003  -0.000000  -0.000000  -0.003261  -0.037052
    32  H    0.000000  -0.000000   0.000000  -0.000000   0.000246   0.005965
    33  H   -0.000000  -0.000000  -0.000000  -0.000000  -0.000124  -0.004274
    34  H    0.000000   0.000000  -0.000000  -0.000000   0.000011  -0.000038
    35  H   -0.000000   0.000000  -0.000000  -0.000000  -0.000062   0.004943
    36  H    0.000000  -0.000000  -0.000000   0.000000   0.000180   0.000158
    37  H   -0.000000  -0.000000   0.000000  -0.000000  -0.000120  -0.000063
    38  H    0.000005  -0.000039   0.000001   0.000002  -0.003918   0.000022
    39  H    0.000000  -0.000002  -0.000000  -0.000000  -0.001820   0.004341
              31         32         33         34         35         36
     1  C    0.003201  -0.000016  -0.000014   0.000001  -0.000002  -0.000138
     2  N   -0.005339   0.009065   0.000138  -0.000032   0.000041   0.006924
     3  C   -0.000030  -0.000064   0.000005   0.000001  -0.000001   0.001094
     4  C   -0.000015   0.000011   0.000000  -0.000000   0.000000   0.000091
     5  C    0.000004  -0.000000   0.000000  -0.000000   0.000000  -0.000002
     6  C    0.000000   0.000000   0.000000   0.000000  -0.000000  -0.000003
     7  N    0.000000   0.000000  -0.000000   0.000000   0.000000   0.000001
     8  N    0.000000   0.000000  -0.000000  -0.000000  -0.000000   0.000000
     9  C   -0.000000  -0.000000   0.000000  -0.000000  -0.000000  -0.000001
    10  O    0.000000  -0.000000  -0.000000   0.000000   0.000000  -0.000001
    11  N    0.000000   0.000000   0.000000   0.000000   0.000000   0.000000
    12  C   -0.031965  -0.007664   0.004802   0.000048  -0.001226  -0.007624
    13  C    0.363729  -0.039908  -0.035334   0.005184  -0.003717  -0.000892
    14  C   -0.036110   0.375599   0.368198  -0.034452  -0.042926  -0.003311
    15  C    0.005009  -0.038375  -0.035313   0.368726   0.373927  -0.038300
    16  C    0.000140  -0.003189   0.005263  -0.034269  -0.042922   0.374336
    17  C    0.005060  -0.000933   0.000021   0.005096  -0.003515  -0.039196
    18  H   -0.000010  -0.000106   0.000000  -0.000000   0.000000   0.000001
    19  H    0.000043   0.000142   0.000003  -0.000000  -0.000000   0.000012
    20  H    0.001689   0.000634  -0.000130   0.000002   0.000003  -0.000022
    21  H   -0.000002  -0.000017  -0.000000   0.000000   0.000002   0.000902
    22  H    0.000002  -0.000012  -0.000001  -0.000000   0.000000  -0.000162
    23  H    0.000000  -0.000000  -0.000000   0.000000   0.000000  -0.000002
    24  H   -0.000000   0.000000   0.000000   0.000000  -0.000000   0.000001
    25  H   -0.000000   0.000000  -0.000000   0.000000  -0.000000   0.000000
    26  H   -0.000003  -0.000000  -0.000000   0.000000   0.000000  -0.000000
    27  H   -0.000000   0.000000  -0.000000  -0.000000  -0.000000  -0.000000
    28  H   -0.000000  -0.000000  -0.000000  -0.000000  -0.000000   0.000000
    29  H   -0.003261   0.000246  -0.000124   0.000011  -0.000062   0.000180
    30  H   -0.037052   0.005965  -0.004274  -0.000038   0.004943   0.000158
    31  H    0.613710  -0.004167  -0.002976  -0.000172  -0.000073  -0.000020
    32  H   -0.004167   0.594899  -0.037679  -0.005022   0.005958   0.003690
    33  H   -0.002976  -0.037679   0.622583  -0.001870  -0.005867  -0.000075
    34  H   -0.000172  -0.005022  -0.001870   0.617260  -0.037586  -0.005112
    35  H   -0.000073   0.005958  -0.005867  -0.037586   0.624931   0.006012
    36  H   -0.000020   0.003690  -0.000075  -0.005112   0.006012   0.599290
    37  H    0.000013  -0.000066  -0.000181  -0.001795  -0.005945  -0.037617
    38  H   -0.000181  -0.000026   0.000012  -0.000171  -0.000064  -0.004316
    39  H    0.000025   0.000149  -0.000063  -0.000034   0.004872   0.005909
              37         38         39
     1  C    0.000002  -0.000051  -0.000137
     2  N    0.000125  -0.004335   0.003635
     3  C   -0.000020   0.000634   0.000217
     4  C    0.000001  -0.000525   0.000024
     5  C   -0.000000  -0.000420  -0.000018
     6  C   -0.000001   0.002192   0.000008
     7  N    0.000000   0.000645   0.000385
     8  N    0.000002   0.001027   0.000014
     9  C    0.000001   0.001307  -0.000004
    10  O   -0.000000   0.000206   0.000002
    11  N   -0.000000  -0.000090   0.000000
    12  C    0.004912  -0.032194  -0.031467
    13  C    0.000009   0.005314  -0.005293
    14  C    0.005296   0.000114  -0.000666
    15  C   -0.035299   0.004977  -0.004369
    16  C    0.369084  -0.036967  -0.041197
    17  C   -0.035155   0.363656   0.369742
    18  H   -0.000000   0.000001   0.000002
    19  H    0.000000  -0.000022   0.000008
    20  H   -0.000001   0.000002  -0.000004
    21  H   -0.000057   0.003626  -0.000070
    22  H   -0.000002  -0.000000  -0.000006
    23  H   -0.000000   0.000018  -0.000000
    24  H    0.000000  -0.000012   0.000001
    25  H   -0.000000   0.000005   0.000000
    26  H   -0.000000  -0.000039  -0.000002
    27  H    0.000000   0.000001  -0.000000
    28  H   -0.000000   0.000002  -0.000000
    29  H   -0.000120  -0.003918  -0.001820
    30  H   -0.000063   0.000022   0.004341
    31  H    0.000013  -0.000181   0.000025
    32  H   -0.000066  -0.000026   0.000149
    33  H   -0.000181   0.000012  -0.000063
    34  H   -0.001795  -0.000171  -0.000034
    35  H   -0.005945  -0.000064   0.004872
    36  H   -0.037617  -0.004316   0.005909
    37  H    0.618401  -0.003147  -0.004364
    38  H   -0.003147   0.595220  -0.034310
    39  H   -0.004364  -0.034310   0.593715
 Mulliken charges:
               1
     1  C   -0.308875
     2  N   -0.389540
     3  C   -0.145647
     4  C   -0.280338
     5  C   -0.361082
     6  C    0.528130
     7  N   -0.330072
     8  N   -0.365217
     9  C    0.709535
    10  O   -0.465591
    11  N   -0.802750
    12  C    0.064013
    13  C   -0.286365
    14  C   -0.250664
    15  C   -0.255279
    16  C   -0.254185
    17  C   -0.287760
    18  H    0.144930
    19  H    0.122321
    20  H    0.157216
    21  H    0.151729
    22  H    0.134450
    23  H    0.140859
    24  H    0.142497
    25  H    0.163712
    26  H    0.187309
    27  H    0.350888
    28  H    0.358089
    29  H    0.108642
    30  H    0.132321
    31  H    0.128752
    32  H    0.140888
    33  H    0.122878
    34  H    0.124223
    35  H    0.123219
    36  H    0.138196
    37  H    0.125987
    38  H    0.141807
    39  H    0.140774
 Sum of Mulliken charges =  -0.00000
 Mulliken charges with hydrogens summed into heavy atoms:
               1
     1  C    0.115592
     2  N   -0.389540
     3  C    0.140532
     4  C    0.003019
     5  C   -0.010061
     6  C    0.528130
     7  N   -0.330072
     8  N   -0.365217
     9  C    0.709535
    10  O   -0.465591
    11  N   -0.093773
    12  C    0.172655
    13  C   -0.025292
    14  C    0.013102
    15  C   -0.007837
    16  C    0.009998
    17  C   -0.005179
 APT charges:
               1
     1  C   -1.340244
     2  N   -0.307888
     3  C   -0.687146
     4  C   -0.979263
     5  C   -0.960026
     6  C    0.166810
     7  N   -0.144423
     8  N   -0.310835
     9  C    0.167883
    10  O   -0.341890
    11  N   -1.413349
    12  C   -0.182405
    13  C   -0.940832
    14  C   -1.101466
    15  C   -1.137920
    16  C   -0.727770
    17  C   -0.580565
    18  H    0.553039
    19  H    0.277599
    20  H    0.605563
    21  H    0.227484
    22  H    0.503459
    23  H    0.476063
    24  H    0.542462
    25  H    0.646610
    26  H    0.301492
    27  H    0.784971
    28  H    1.094435
    29  H    0.246385
    30  H    0.447676
    31  H    0.526923
    32  H    0.343379
    33  H    0.755193
    34  H    0.646722
    35  H    0.470163
    36  H    0.285370
    37  H    0.460901
    38  H    0.192648
    39  H    0.432794
 Sum of APT charges =  -0.00000
 APT charges with hydrogens summed into heavy atoms:
               1
     1  C    0.095956
     2  N   -0.307888
     3  C    0.043797
     4  C    0.039262
     5  C   -0.011924
     6  C    0.166810
     7  N   -0.144423
     8  N   -0.310835
     9  C    0.167883
    10  O   -0.341890
    11  N    0.466057
    12  C    0.063980
    13  C    0.033766
    14  C   -0.002895
    15  C   -0.021035
    16  C    0.018501
    17  C    0.044877
 Electronic spatial extent (au):  <R**2>=           4744.6276
 Charge=             -0.0000 electrons
 Dipole moment (field-independent basis, Debye):
    X=              2.1796    Y=              1.9755    Z=             -3.1490  Tot=              4.3092
 Quadrupole moment (field-independent basis, Debye-Ang):
   XX=            -87.5251   YY=           -100.6222   ZZ=           -108.2075
   XY=             -1.6943   XZ=            -14.8762   YZ=              4.4945
 Traceless Quadrupole moment (field-independent basis, Debye-Ang):
   XX=             11.2598   YY=             -1.8373   ZZ=             -9.4225
   XY=             -1.6943   XZ=            -14.8762   YZ=              4.4945
 Octapole moment (field-independent basis, Debye-Ang**2):
  XXX=            136.7386  YYY=              9.1949  ZZZ=            -21.4545  XYY=             15.3112
  XXY=            -21.4566  XXZ=            -52.6398  XZZ=              4.9140  YZZ=              6.6653
  YYZ=             -5.9893  XYZ=             19.3755
 Hexadecapole moment (field-independent basis, Debye-Ang**3):
 XXXX=          -3574.9063 YYYY=          -1529.0195 ZZZZ=           -602.1482 XXXY=           -214.5466
 XXXZ=           -263.2034 YYYX=            -49.6266 YYYZ=              7.2477 ZZZX=            -67.2252
 ZZZY=              6.1882 XXYY=           -881.3786 XXZZ=           -775.7603 YYZZ=           -360.8746
 XXYZ=             70.3030 YYXZ=            -22.8987 ZZXY=              9.4791
 N-N= 1.313709817707D+03 E-N=-4.403942799572D+03  KE= 7.576248889483D+02
  Exact polarizability:   0.000   0.000   0.000   0.000   0.000   0.000
 Approx polarizability: 196.673 -19.292 220.435 -19.525 -10.165 218.808
 Calling FoFJK, ICntrl=    100147 FMM=F ISym2X=0 I1Cent= 0 IOpClX= 0 NMat=1 NMatS=1 NMatT=0.
 ***** Axes restored to original set *****
 -------------------------------------------------------------------
 Center     Atomic                   Forces (Hartrees/Bohr)
 Number     Number              X              Y              Z
 -------------------------------------------------------------------
      1        6          -0.001452202   -0.007310558    0.003349518
      2        7          -0.001818843   -0.005823477    0.002713017
      3        6          -0.001275466    0.003134844    0.011423724
      4        6          -0.002900570    0.002252114    0.004421848
      5        6           0.001748221    0.006750166   -0.004199310
      6        6           0.024184902   -0.007873988   -0.017319809
      7        7          -0.004319783    0.026197660    0.024162390
      8        7          -0.019828787   -0.012420972    0.004016718
      9        6           0.022071725    0.009624053   -0.017039166
     10        8           0.002236156   -0.006478802   -0.000487753
     11        7          -0.025824687   -0.017220532    0.007714071
     12        6           0.003947047   -0.003624202   -0.002021520
     13        6          -0.000227226    0.005084213    0.002993188
     14        6           0.002203102    0.001187452    0.001774322
     15        6           0.000217967   -0.001989449    0.003389304
     16        6          -0.001920701   -0.001127484    0.000923803
     17        6          -0.005729422    0.002878437    0.001853800
     18        1          -0.004044705   -0.002710785   -0.002069241
     19        1           0.003265949    0.005415182   -0.003947812
     20        1           0.000824628   -0.002809962   -0.002637955
     21        1           0.005825695   -0.002318262   -0.004486366
     22        1           0.000869540    0.002518749    0.000202002
     23        1           0.000433864   -0.001471447    0.000568890
     24        1           0.001406503   -0.001002442   -0.000760117
     25        1          -0.000168798    0.003183705   -0.000574973
     26        1          -0.001457966   -0.004443490   -0.002169823
     27        1           0.001796974    0.000227029   -0.001080208
     28        1           0.002524597    0.001419586    0.000820466
     29        1           0.001289431    0.000663210   -0.007288818
     30        1          -0.003795204    0.000184107   -0.001530312
     31        1          -0.000989996    0.001427233   -0.000176971
     32        1          -0.001335237    0.001293505   -0.000631083
     33        1           0.001373031    0.000833323    0.000614925
     34        1           0.000946499   -0.001611826    0.000763590
     35        1           0.000807361   -0.001014097   -0.001317767
     36        1          -0.000010460    0.001660333    0.000220872
     37        1          -0.001450822   -0.000420691   -0.000124363
     38        1          -0.000707734    0.001784758   -0.001799797
     39        1           0.001285419    0.003952808   -0.000263284
 -------------------------------------------------------------------
 Cartesian Forces:  Max     0.026197660 RMS     0.006903701

 GradGradGradGradGradGradGradGradGradGradGradGradGradGradGradGradGradGrad
 Berny optimization.
 Search for a local minimum.
 Step number   1 out of a maximum of  127
 All quantities printed in internal units (Hartrees-Bohrs-Radians)
 Second derivative matrix not updated -- analytic derivatives used.
 ITU=  0
     Eigenvalues ---   -0.00052  -0.00026   0.00012   0.00056   0.00105
     Eigenvalues ---    0.00147   0.00215   0.00266   0.00306   0.00389
     Eigenvalues ---    0.00497   0.00623   0.00872   0.01012   0.01249
     Eigenvalues ---    0.01305   0.01331   0.01426   0.01621   0.01671
     Eigenvalues ---    0.02013   0.02660   0.03016   0.03960   0.04101
     Eigenvalues ---    0.04375   0.04489   0.04648   0.04712   0.04751
     Eigenvalues ---    0.04969   0.04982   0.05129   0.05397   0.05507
     Eigenvalues ---    0.05556   0.05784   0.06066   0.06448   0.06767
     Eigenvalues ---    0.06789   0.07049   0.07299   0.07485   0.08040
     Eigenvalues ---    0.08117   0.08905   0.09522   0.09904   0.10172
     Eigenvalues ---    0.10723   0.11042   0.11627   0.11741   0.12379
     Eigenvalues ---    0.14409   0.15046   0.15611   0.15966   0.16184
     Eigenvalues ---    0.16593   0.17814   0.19302   0.19458   0.19750
     Eigenvalues ---    0.20685   0.22689   0.24379   0.26482   0.26919
     Eigenvalues ---    0.27716   0.28758   0.32252   0.35143   0.37060
     Eigenvalues ---    0.40654   0.46663   0.51182   0.52050   0.54878
     Eigenvalues ---    0.55422   0.58619   0.64072   0.65204   0.65415
     Eigenvalues ---    0.66395   0.69527   0.71634   0.73734   0.74468
     Eigenvalues ---    0.75908   0.76747   0.77357   0.78171   0.78508
     Eigenvalues ---    0.79895   0.82210   0.82715   0.83096   0.84125
     Eigenvalues ---    0.85304   0.86104   0.87385   0.88588   0.90060
     Eigenvalues ---    0.92583   0.93639   0.97828   1.12878   1.18302
     Eigenvalues ---    1.50547
 RFO step:  Lambda=-1.10625898D-02 EMin=-5.18170500D-04
 Linear search not attempted -- first point.
 Maximum step size (   0.300) exceeded in Quadratic search.
    -- Step size scaled by   0.313
 B after Tr=     0.001318    0.000424    0.003226
         Rot=    1.000000   -0.000199    0.000218   -0.000102 Ang=  -0.04 deg.
 Variable       Old X    -DE/DX   Delta X   Delta X   Delta X     New X
                                 (Linear)    (Quad)   (Total)
    X1        1.96437  -0.00145   0.00000   0.00301   0.00430   1.96867
    Y1       -0.10000  -0.00731   0.00000  -0.02741  -0.02664  -0.12664
    Z1        0.14192   0.00335   0.00000  -0.00906  -0.00503   0.13689
    X2        0.62854  -0.00182   0.00000  -0.01120  -0.00929   0.61925
    Y2       -2.50421  -0.00582   0.00000  -0.01322  -0.01260  -2.51681
    Z2       -0.16074   0.00271   0.00000  -0.01415  -0.01166  -0.17240
    X3       -2.10240  -0.00128   0.00000  -0.00673  -0.00477  -2.10716
    Y3       -2.12120   0.00313   0.00000   0.00949   0.00969  -2.11151
    Z3       -0.50153   0.01142   0.00000   0.00345   0.00492  -0.49662
    X4       -3.05257  -0.00290   0.00000  -0.00047   0.00199  -3.05058
    Y4       -0.25243   0.00225   0.00000   0.02457   0.02538  -0.22705
    Z4       -2.52212   0.00442   0.00000   0.00892   0.01072  -2.51140
    X5       -2.69050   0.00175   0.00000   0.00085   0.00467  -2.68583
    Y5       -1.00110   0.00675   0.00000   0.04749   0.04948  -0.95162
    Z5       -5.28435  -0.00420   0.00000  -0.00456  -0.00288  -5.28724
    X6       -3.95040   0.02418   0.00000   0.02631   0.03094  -3.91946
    Y6       -3.39497  -0.00787   0.00000   0.03173   0.03375  -3.36122
    Z6       -6.00383  -0.01732   0.00000  -0.00850  -0.00833  -6.01216
    X7       -3.17003  -0.00432   0.00000   0.02794   0.03360  -3.13643
    Y7       -5.17222   0.02620   0.00000   0.04439   0.04718  -5.12504
    Z7       -7.55875   0.02416   0.00000   0.00535   0.00517  -7.55359
    X8       -5.02399  -0.01983   0.00000   0.03748   0.04351  -4.98048
    Y8       -7.00964  -0.01242   0.00000   0.01217   0.01459  -6.99505
    Z8       -7.54571   0.00402   0.00000   0.00250   0.00076  -7.54495
    X9       -6.78901   0.02207   0.00000   0.04550   0.05070  -6.73831
    Y9       -6.21408   0.00962   0.00000  -0.00161  -0.00017  -6.21425
    Z9       -5.99875  -0.01704   0.00000   0.00618   0.00398  -5.99476
   X10       -6.26924   0.00224   0.00000   0.03064   0.03492  -6.23432
   Y10       -3.90998  -0.00648   0.00000  -0.00088   0.00025  -3.90972
   Z10       -4.97336  -0.00049   0.00000   0.00766   0.00661  -4.96676
   X11       -8.97085  -0.02582   0.00000   0.07658   0.08168  -8.88917
   Y11       -7.28469  -0.01722   0.00000  -0.06760  -0.06689  -7.35158
   Z11       -5.31890   0.00771   0.00000   0.06987   0.06628  -5.25262
   X12        1.89802   0.00395   0.00000  -0.02678  -0.02375   1.87427
   Y12       -4.29784  -0.00362   0.00000  -0.01407  -0.01250  -4.31034
   Z12       -1.89725  -0.00202   0.00000  -0.02076  -0.01843  -1.91568
   X13        4.67065  -0.00023   0.00000  -0.02838  -0.02558   4.64507
   Y13       -4.84490   0.00508   0.00000  -0.00948  -0.00766  -4.85256
   Z13       -1.11426   0.00299   0.00000  -0.02276  -0.01944  -1.13370
   X14        4.84694   0.00220   0.00000  -0.01838  -0.01640   4.83054
   Y14       -6.26197   0.00119   0.00000  -0.00077   0.00009  -6.26188
   Z14        1.40055   0.00177   0.00000  -0.01587  -0.01303   1.38752
   X15        3.38214   0.00022   0.00000  -0.02390  -0.02138   3.36076
   Y15       -8.74558  -0.00199   0.00000  -0.00319  -0.00261  -8.74819
   Z15        1.31538   0.00339   0.00000  -0.00162  -0.00041   1.31497
   X16        0.67272  -0.00192   0.00000  -0.03252  -0.02968   0.64304
   Y16       -8.37719  -0.00113   0.00000   0.00520   0.00559  -8.37160
   Z16        0.40132   0.00092   0.00000   0.01203   0.01220   0.41352
   X17        0.58714  -0.00573   0.00000  -0.04263  -0.03900   0.54814
   Y17       -6.90746   0.00288   0.00000  -0.00367  -0.00231  -6.90977
   Z17       -2.08410   0.00185   0.00000   0.00352   0.00423  -2.07987
   X18        0.89577  -0.00404   0.00000  -0.00803  -0.00753   0.88824
   Y18        1.19805  -0.00271   0.00000  -0.02956  -0.02949   1.16856
   Z18        1.35320  -0.00207   0.00000  -0.01746  -0.01338   1.33981
   X19        2.29919   0.00327   0.00000   0.02498   0.02686   2.32605
   Y19        0.83352   0.00542   0.00000  -0.01069  -0.00913   0.82439
   Z19       -1.67477  -0.00395   0.00000  -0.00387   0.00070  -1.67407
   X20        3.77785   0.00082   0.00000  -0.00097  -0.00005   3.77780
   Y20       -0.35604  -0.00281   0.00000  -0.04397  -0.04321  -0.39926
   Z20        1.10033  -0.00264   0.00000  -0.00700  -0.00229   1.09804
   X21       -3.10716   0.00583   0.00000   0.00462   0.00704  -3.10013
   Y21       -3.91890  -0.00232   0.00000   0.00773   0.00780  -3.91109
   Z21       -0.67116  -0.00449   0.00000  -0.02889  -0.02858  -0.69973
   X22       -2.79385   0.00087   0.00000  -0.00131  -0.00029  -2.79413
   Y22       -1.38625   0.00252   0.00000   0.00562   0.00495  -1.38130
   Z22        1.31548   0.00020   0.00000   0.00642   0.00787   1.32335
   X23       -5.07849   0.00043   0.00000  -0.00058   0.00167  -5.07681
   Y23        0.04760  -0.00147   0.00000   0.01988   0.02014   0.06774
   Z23       -2.17936   0.00057   0.00000   0.00750   0.00854  -2.17083
   X24       -2.18152   0.00141   0.00000   0.00660   0.00855  -2.17297
   Y24        1.60455  -0.00100   0.00000   0.01918   0.02004   1.62458
   Z24       -2.22619  -0.00076   0.00000   0.01733   0.02025  -2.20594
   X25       -3.47222  -0.00017   0.00000  -0.01271  -0.00868  -3.48090
   Y25        0.50501   0.00318   0.00000   0.05152   0.05381   0.55882
   Z25       -6.47568  -0.00057   0.00000   0.00745   0.00937  -6.46630
   X26       -0.67960  -0.00146   0.00000  -0.00302   0.00103  -0.67857
   Y26       -1.09702  -0.00444   0.00000   0.04427   0.04685  -1.05018
   Z26       -5.74919  -0.00217   0.00000  -0.01772  -0.01521  -5.76440
   X27      -10.32512   0.00180   0.00000   0.05350   0.05808 -10.26705
   Y27       -6.15055   0.00023   0.00000  -0.06255  -0.06239  -6.21294
   Z27       -4.58992  -0.00108   0.00000   0.02135   0.01761  -4.57231
   X28       -9.61910   0.00252   0.00000   0.09701   0.10290  -9.51621
   Y28       -8.69174   0.00142   0.00000  -0.06180  -0.06076  -8.75250
   Z28       -6.44266   0.00082   0.00000   0.05137   0.04695  -6.39571
   X29        1.95547   0.00129   0.00000  -0.03015  -0.02645   1.92902
   Y29       -3.47632   0.00066   0.00000  -0.02553  -0.02319  -3.49951
   Z29       -3.79493  -0.00729   0.00000  -0.03236  -0.02969  -3.82462
   X30        5.56337  -0.00380   0.00000  -0.04869  -0.04501   5.51837
   Y30       -6.00058   0.00018   0.00000  -0.01891  -0.01632  -6.01690
   Z30       -2.59036  -0.00153   0.00000  -0.02723  -0.02399  -2.61436
   X31        5.80061  -0.00099   0.00000  -0.02862  -0.02620   5.77441
   Y31       -3.11391   0.00143   0.00000  -0.00870  -0.00667  -3.12058
   Z31       -1.03287  -0.00018   0.00000  -0.03967  -0.03517  -1.06803
   X32        4.11883  -0.00134   0.00000  -0.01851  -0.01744   4.10139
   Y32       -5.07866   0.00129   0.00000   0.00854   0.00863  -5.07003
   Z32        2.93728  -0.00063   0.00000  -0.02264  -0.01964   2.91763
   X33        6.83323   0.00137   0.00000  -0.01569  -0.01382   6.81941
   Y33       -6.65254   0.00083   0.00000   0.00390   0.00499  -6.64755
   Z33        1.83793   0.00061   0.00000  -0.01919  -0.01563   1.82230
   X34        3.37567   0.00095   0.00000  -0.01071  -0.00883   3.36685
   Y34       -9.62358  -0.00161   0.00000  -0.00533  -0.00549  -9.62908
   Z34        3.19069   0.00076   0.00000  -0.00155  -0.00069   3.19000
   X35        4.35366   0.00081   0.00000  -0.03422  -0.03087   4.32279
   Y35      -10.06234  -0.00101   0.00000  -0.00596  -0.00467 -10.06701
   Z35        0.04180  -0.00132   0.00000  -0.00944  -0.00834   0.03346
   X36       -0.42432  -0.00001   0.00000  -0.01481  -0.01281  -0.43713
   Y36       -7.38427   0.00166   0.00000   0.02401   0.02361  -7.36067
   Z36        1.85102   0.00022   0.00000   0.01307   0.01317   1.86420
   X37       -0.22136  -0.00145   0.00000  -0.04753  -0.04420  -0.26557
   Y37      -10.22720  -0.00042   0.00000   0.00948   0.00979 -10.21741
   Z37        0.13931  -0.00012   0.00000   0.02758   0.02662   0.16593
   X38       -1.36788  -0.00071   0.00000  -0.04255  -0.03867  -1.40655
   Y38       -6.75135   0.00178   0.00000   0.00524   0.00646  -6.74489
   Z38       -2.72415  -0.00180   0.00000   0.00421   0.00414  -2.72002
   X39        1.54319   0.00129   0.00000  -0.04626  -0.04176   1.50143
   Y39       -8.02518   0.00395   0.00000  -0.00246  -0.00032  -8.02550
   Z39       -3.55002  -0.00026   0.00000   0.00105   0.00173  -3.54829
         Item               Value     Threshold  Converged?
 Maximum Force            0.026198     0.000450     NO 
 RMS     Force            0.006904     0.000300     NO 
 Maximum Displacement     0.102895     0.001800     NO 
 RMS     Displacement     0.027613     0.001200     NO 
 Predicted change in Energy=-3.087130D-03
 GradGradGradGradGradGradGradGradGradGradGradGradGradGradGradGradGradGrad

                          Input orientation:                          
 ---------------------------------------------------------------------
 Center     Atomic      Atomic             Coordinates (Angstroms)
 Number     Number       Type             X           Y           Z
 ---------------------------------------------------------------------
      1          6           0        1.041774   -0.067017    0.072439
      2          7           0        0.327692   -1.331836   -0.091230
      3          6           0       -1.115063   -1.117365   -0.262798
      4          6           0       -1.614298   -0.120150   -1.328977
      5          6           0       -1.421278   -0.503578   -2.797886
      6          6           0       -2.074089   -1.778681   -3.181495
      7          7           0       -1.659728   -2.712052   -3.997186
      8          7           0       -2.635555   -3.701622   -3.992617
      9          6           0       -3.565760   -3.288440   -3.172293
     10          8           0       -3.299061   -2.068937   -2.628295
     11          7           0       -4.703946   -3.890288   -2.779565
     12          6           0        0.991823   -2.280935   -1.013732
     13          6           0        2.458064   -2.567863   -0.599927
     14          6           0        2.556213   -3.313645    0.734245
     15          6           0        1.778437   -4.629341    0.695852
     16          6           0        0.340284   -4.430062    0.218825
     17          6           0        0.290063   -3.656493   -1.100620
     18          1           0        0.470035    0.618375    0.708997
     19          1           0        1.230893    0.436249   -0.885880
     20          1           0        1.999124   -0.211278    0.581060
     21          1           0       -1.640516   -2.069661   -0.370284
     22          1           0       -1.478592   -0.730951    0.700285
     23          1           0       -2.686534    0.035848   -1.148753
[...]
   360    C   17  px     Ryd( 4p)     0.00004       1.18128
   361    C   17  px     Ryd( 5p)     0.00003       2.85414
   362    C   17  py     Val( 2p)     0.53964       0.02285
   363    C   17  py     Ryd( 3p)     0.00118       0.76090
   364    C   17  py     Ryd( 4p)     0.00003       1.20737
   365    C   17  py     Ryd( 5p)     0.00002       2.95659
   366    C   17  pz     Val( 2p)     0.56518       0.02405
   367    C   17  pz     Ryd( 3p)     0.00200       0.85243
   368    C   17  pz     Ryd( 4p)     0.00004       1.06270
   369    C   17  pz     Ryd( 5p)     0.00004       2.97351
   370    C   17  dxy    Ryd( 3d)     0.00021       2.13104
   371    C   17  dxz    Ryd( 3d)     0.00038       2.28474
   372    C   17  dyz    Ryd( 3d)     0.00051       2.40896
   373    C   17  dx2y2  Ryd( 3d)     0.00050       2.31773
   374    C   17  dz2    Ryd( 3d)     0.00024       2.06192
 
   375    H   18  S      Val( 1S)     0.40211       0.12267
   376    H   18  S      Ryd( 2S)     0.00030       0.49561
   377    H   18  S      Ryd( 4S)     0.00026       1.51019
   378    H   18  S      Ryd( 3S)     0.00003       1.15679
   379    H   18  px     Ryd( 2p)     0.00007       1.93872
   380    H   18  py     Ryd( 2p)     0.00009       2.32864
   381    H   18  pz     Ryd( 2p)     0.00011       2.42592
 
   382    H   19  S      Val( 1S)     0.41746       0.10991
   383    H   19  S      Ryd( 2S)     0.00038       0.50971
   384    H   19  S      Ryd( 4S)     0.00059       1.64744
   385    H   19  S      Ryd( 3S)     0.00002       1.11998
   386    H   19  px     Ryd( 2p)     0.00008       2.04743
   387    H   19  py     Ryd( 2p)     0.00007       2.14991
   388    H   19  pz     Ryd( 2p)     0.00011       2.50182
 
   389    H   20  S      Val( 1S)     0.40590       0.12482
   390    H   20  S      Ryd( 2S)     0.00029       0.66866
   391    H   20  S      Ryd( 4S)     0.00042       1.48880
   392    H   20  S      Ryd( 3S)     0.00002       1.01672
   393    H   20  px     Ryd( 2p)     0.00015       2.78353
   394    H   20  py     Ryd( 2p)     0.00006       1.93625
   395    H   20  pz     Ryd( 2p)     0.00009       1.96732
 
   396    H   21  S      Val( 1S)     0.39949       0.14152
   397    H   21  S      Ryd( 2S)     0.00092       0.59369
   398    H   21  S      Ryd( 4S)     0.00038       2.11322
   399    H   21  S      Ryd( 3S)     0.00001       0.78631
   400    H   21  px     Ryd( 2p)     0.00010       2.17846
   401    H   21  py     Ryd( 2p)     0.00015       2.63073
   402    H   21  pz     Ryd( 2p)     0.00009       2.07573
 
   403    H   22  S      Val( 1S)     0.40508       0.13199
   404    H   22  S      Ryd( 2S)     0.00035       0.48535
   405    H   22  S      Ryd( 4S)     0.00036       1.59274
   406    H   22  S      Ryd( 3S)     0.00002       1.32577
   407    H   22  px     Ryd( 2p)     0.00008       2.04078
   408    H   22  py     Ryd( 2p)     0.00009       2.11993
   409    H   22  pz     Ryd( 2p)     0.00015       2.66047
 
   410    H   23  S      Val( 1S)     0.39414       0.13583
   411    H   23  S      Ryd( 2S)     0.00096       0.41870
   412    H   23  S      Ryd( 4S)     0.00040       1.86075
   413    H   23  S      Ryd( 3S)     0.00003       1.09062
   414    H   23  px     Ryd( 2p)     0.00011       2.38335
   415    H   23  py     Ryd( 2p)     0.00008       1.99450
   416    H   23  pz     Ryd( 2p)     0.00011       2.39174
 
   417    H   24  S      Val( 1S)     0.39909       0.12972
   418    H   24  S      Ryd( 2S)     0.00069       0.46503
   419    H   24  S      Ryd( 4S)     0.00036       1.74842
   420    H   24  S      Ryd( 3S)     0.00001       1.14782
   421    H   24  px     Ryd( 2p)     0.00008       2.12750
   422    H   24  py     Ryd( 2p)     0.00014       2.72323
   423    H   24  pz     Ryd( 2p)     0.00007       1.95641
 
   424    H   25  S      Val( 1S)     0.38586       0.12094
   425    H   25  S      Ryd( 2S)     0.00061       0.39653
   426    H   25  S      Ryd( 4S)     0.00043       1.49486
   427    H   25  S      Ryd( 3S)     0.00002       1.33194
   428    H   25  px     Ryd( 2p)     0.00011       2.34182
   429    H   25  py     Ryd( 2p)     0.00012       2.36827
   430    H   25  pz     Ryd( 2p)     0.00007       2.03495
 
   431    H   26  S      Val( 1S)     0.38613       0.13058
   432    H   26  S      Ryd( 2S)     0.00100       0.59907
   433    H   26  S      Ryd( 4S)     0.00038       1.96245
   434    H   26  S      Ryd( 3S)     0.00001       0.90119
   435    H   26  px     Ryd( 2p)     0.00010       2.29284
   436    H   26  py     Ryd( 2p)     0.00008       1.98052
   437    H   26  pz     Ryd( 2p)     0.00010       2.47734
 
   438    H   27  S      Val( 1S)     0.27474       0.12815
   439    H   27  S      Ryd( 2S)     0.02176       0.29844
   440    H   27  S      Ryd( 4S)     0.00029       1.78980
   441    H   27  S      Ryd( 3S)     0.00004       1.08055
   442    H   27  px     Ryd( 2p)     0.00031       2.17626
   443    H   27  py     Ryd( 2p)     0.00019       2.10587
   444    H   27  pz     Ryd( 2p)     0.00023       2.12465
 
   445    H   28  S      Val( 1S)     0.29515       0.15698
   446    H   28  S      Ryd( 2S)     0.00439       0.29576
   447    H   28  S      Ryd( 4S)     0.00019       1.97872
   448    H   28  S      Ryd( 3S)     0.00003       0.92530
   449    H   28  px     Ryd( 2p)     0.00023       1.94939
   450    H   28  py     Ryd( 2p)     0.00020       2.44917
   451    H   28  pz     Ryd( 2p)     0.00027       1.98659
 
   452    H   29  S      Val( 1S)     0.40560       0.15302
   453    H   29  S      Ryd( 2S)     0.00112       0.82776
   454    H   29  S      Ryd( 3S)     0.00057       1.66594
   455    H   29  S      Ryd( 4S)     0.00014       2.73525
   456    H   29  px     Ryd( 2p)     0.00015       2.40154
   457    H   29  py     Ryd( 2p)     0.00007       2.11486
   458    H   29  pz     Ryd( 2p)     0.00014       2.54764
 
   459    H   30  S      Val( 1S)     0.40161       0.13256
   460    H   30  S      Ryd( 2S)     0.00035       0.51299
   461    H   30  S      Ryd( 4S)     0.00039       1.77850
   462    H   30  S      Ryd( 3S)     0.00005       1.21024
   463    H   30  px     Ryd( 2p)     0.00007       1.91898
   464    H   30  py     Ryd( 2p)     0.00010       2.34714
   465    H   30  pz     Ryd( 2p)     0.00013       2.53148
 
   466    H   31  S      Val( 1S)     0.39966       0.13737
   467    H   31  S      Ryd( 2S)     0.00014       0.61772
   468    H   31  S      Ryd( 3S)     0.00044       1.21912
   469    H   31  S      Ryd( 4S)     0.00005       1.43898
   470    H   31  px     Ryd( 2p)     0.00008       2.05493
   471    H   31  py     Ryd( 2p)     0.00012       2.50673
   472    H   31  pz     Ryd( 2p)     0.00011       2.18805
 
   473    H   32  S      Val( 1S)     0.39951       0.13791
   474    H   32  S      Ryd( 2S)     0.00045       0.47959
   475    H   32  S      Ryd( 4S)     0.00059       1.73150
   476    H   32  S      Ryd( 3S)     0.00010       1.06496
   477    H   32  px     Ryd( 2p)     0.00009       2.07816
   478    H   32  py     Ryd( 2p)     0.00011       2.32833
   479    H   32  pz     Ryd( 2p)     0.00012       2.36162
 
   480    H   33  S      Val( 1S)     0.40518       0.12767
   481    H   33  S      Ryd( 2S)     0.00010       0.42168
   482    H   33  S      Ryd( 3S)     0.00055       0.92678
   483    H   33  S      Ryd( 4S)     0.00008       1.89584
   484    H   33  px     Ryd( 2p)     0.00016       2.62736
   485    H   33  py     Ryd( 2p)     0.00008       1.95025
   486    H   33  pz     Ryd( 2p)     0.00010       2.07805
 
   487    H   34  S      Val( 1S)     0.40417       0.12957
   488    H   34  S      Ryd( 2S)     0.00008       0.40649
   489    H   34  S      Ryd( 3S)     0.00053       0.82058
   490    H   34  S      Ryd( 4S)     0.00011       1.99787
   491    H   34  px     Ryd( 2p)     0.00012       2.25809
   492    H   34  py     Ryd( 2p)     0.00010       2.05624
   493    H   34  pz     Ryd( 2p)     0.00012       2.33568
 
   494    H   35  S      Val( 1S)     0.40948       0.12200
   495    H   35  S      Ryd( 2S)     0.00051       0.46511
   496    H   35  S      Ryd( 4S)     0.00036       1.72854
   497    H   35  S      Ryd( 3S)     0.00012       1.15272
   498    H   35  px     Ryd( 2p)     0.00008       1.91994
   499    H   35  py     Ryd( 2p)     0.00014       2.45213
   500    H   35  pz     Ryd( 2p)     0.00011       2.32294
 
   501    H   36  S      Val( 1S)     0.39980       0.14412
   502    H   36  S      Ryd( 2S)     0.00048       0.53411
   503    H   36  S      Ryd( 4S)     0.00061       1.86454
   504    H   36  S      Ryd( 3S)     0.00008       1.02381
   505    H   36  px     Ryd( 2p)     0.00008       1.92146
   506    H   36  py     Ryd( 2p)     0.00011       2.27499
   507    H   36  pz     Ryd( 2p)     0.00012       2.59889
 
   508    H   37  S      Val( 1S)     0.40212       0.13863
   509    H   37  S      Ryd( 2S)     0.00007       0.61103
   510    H   37  S      Ryd( 3S)     0.00047       1.01120
   511    H   37  S      Ryd( 4S)     0.00006       1.70720
   512    H   37  px     Ryd( 2p)     0.00011       2.02803
   513    H   37  py     Ryd( 2p)     0.00013       2.60775
   514    H   37  pz     Ryd( 2p)     0.00008       2.06163
 
   515    H   38  S      Val( 1S)     0.39526       0.15812
   516    H   38  S      Ryd( 2S)     0.00099       1.06927
   517    H   38  S      Ryd( 3S)     0.00054       1.26966
   518    H   38  S      Ryd( 4S)     0.00015       2.54480
   519    H   38  px     Ryd( 2p)     0.00016       2.72879
   520    H   38  py     Ryd( 2p)     0.00007       1.97133
   521    H   38  pz     Ryd( 2p)     0.00008       2.12539
 
   522    H   39  S      Val( 1S)     0.39789       0.14710
   523    H   39  S      Ryd( 2S)     0.00041       0.53270
   524    H   39  S      Ryd( 4S)     0.00033       2.26922
   525    H   39  S      Ryd( 3S)     0.00002       0.81424
   526    H   39  px     Ryd( 2p)     0.00008       2.09905
   527    H   39  py     Ryd( 2p)     0.00010       2.35638
   528    H   39  pz     Ryd( 2p)     0.00011       2.45733

 WARNING:  Population inversion found on atom  C    1
           Population inversion found on atom  C    3
           Population inversion found on atom  C    4
           Population inversion found on atom  C    5
           Population inversion found on atom  C    6
           Population inversion found on atom  N    7
           Population inversion found on atom  N    8
           Population inversion found on atom  C    9
           Population inversion found on atom  C   12
           Population inversion found on atom  C   13
           Population inversion found on atom  C   14
           Population inversion found on atom  C   15
           Population inversion found on atom  C   16
           Population inversion found on atom  H   18
           Population inversion found on atom  H   19
           Population inversion found on atom  H   20
           Population inversion found on atom  H   21
           Population inversion found on atom  H   22
           Population inversion found on atom  H   23
           Population inversion found on atom  H   24
           Population inversion found on atom  H   25
           Population inversion found on atom  H   26
           Population inversion found on atom  H   27
           Population inversion found on atom  H   28
           Population inversion found on atom  H   30
           Population inversion found on atom  H   31
           Population inversion found on atom  H   32
           Population inversion found on atom  H   33
           Population inversion found on atom  H   34
           Population inversion found on atom  H   35
           Population inversion found on atom  H   36
           Population inversion found on atom  H   37
           Population inversion found on atom  H   39


 Summary of Natural Population Analysis:                  
                                                          
                                       Natural Population 
                Natural  -----------------------------------------------
    Atom  No    Charge         Core      Valence    Rydberg      Total
 -----------------------------------------------------------------------
      C    1   -0.17914      0.99964     2.17027    0.00923     3.17914
      N    2   -0.29445      0.99971     2.78124    0.01351     3.79445
      C    3   -0.08322      0.99960     2.07154    0.01208     3.08322
      C    4   -0.19668      0.99962     2.18818    0.00889     3.19668
      C    5   -0.22166      0.99957     2.21298    0.00910     3.22166
      C    6    0.25308      0.99958     1.72690    0.02044     2.74692
      N    7   -0.16407      0.99965     2.65238    0.01205     3.66407
      N    8   -0.20257      0.99966     2.69023    0.01268     3.70257
      C    9    0.33859      0.99961     1.64142    0.02039     2.66141
      O   10   -0.25084      0.99985     3.24251    0.00847     4.25084
      N   11   -0.39666      0.99971     2.88700    0.00996     3.89666
      C   12   -0.00205      0.99957     1.99041    0.01207     3.00205
      C   13   -0.19296      0.99961     2.18549    0.00786     3.19296
      C   14   -0.19308      0.99963     2.18573    0.00772     3.19308
      C   15   -0.18769      0.99963     2.18051    0.00755     3.18769
      C   16   -0.19200      0.99963     2.18506    0.00731     3.19200
      C   17   -0.19455      0.99961     2.18607    0.00888     3.19455
      H   18    0.09701      0.00000     0.40211    0.00088     0.40299
      H   19    0.08128      0.00000     0.41746    0.00126     0.41872
      H   20    0.09307      0.00000     0.40590    0.00102     0.40693
      H   21    0.09886      0.00000     0.39949    0.00165     0.40114
      H   22    0.09388      0.00000     0.40508    0.00104     0.40612
      H   23    0.10419      0.00000     0.39414    0.00168     0.39581
      H   24    0.09957      0.00000     0.39909    0.00134     0.40043
      H   25    0.11276      0.00000     0.38586    0.00137     0.38724
      H   26    0.11220      0.00000     0.38613    0.00167     0.38780
      H   27    0.20244      0.00000     0.27474    0.02282     0.29756
      H   28    0.19954      0.00000     0.29515    0.00531     0.30046
      H   29    0.09220      0.00000     0.40560    0.00220     0.40780
      H   30    0.09731      0.00000     0.40161    0.00109     0.40269
      H   31    0.09940      0.00000     0.39966    0.00095     0.40060
      H   32    0.09903      0.00000     0.39951    0.00146     0.40097
      H   33    0.09376      0.00000     0.40518    0.00106     0.40624
      H   34    0.09479      0.00000     0.40417    0.00105     0.40521
      H   35    0.08920      0.00000     0.40948    0.00131     0.41080
      H   36    0.09871      0.00000     0.39980    0.00149     0.40129
      H   37    0.09695      0.00000     0.40212    0.00093     0.40305
      H   38    0.10276      0.00000     0.39526    0.00199     0.39724
      H   39    0.10106      0.00000     0.39789    0.00105     0.39894
 =======================================================================
   * Total *    0.00000     16.99388    47.76333    0.24279    65.00000

                                 Natural Population      
 --------------------------------------------------------
   Core                      16.99388 ( 99.9640% of  17)
   Valence                   47.76333 ( 99.5069% of  48)
   Natural Minimal Basis     64.75721 ( 99.6265% of  65)
   Natural Rydberg Basis      0.24279 (  0.3735% of  65)
 --------------------------------------------------------

    Atom  No          Natural Electron Configuration
 ----------------------------------------------------------------------------
      C    1      [core]2S( 0.53)2p( 1.65)
      N    2      [core]2S( 0.63)2p( 2.16)3p( 0.01)
      C    3      [core]2S( 0.49)2p( 1.58)3p( 0.01)
      C    4      [core]2S( 0.51)2p( 1.67)
      C    5      [core]2S( 0.51)2p( 1.70)
      C    6      [core]2S( 0.41)2p( 1.32)3p( 0.01)3d( 0.01)
      N    7      [core]2S( 0.72)2p( 1.93)3p( 0.01)
      N    8      [core]2S( 0.73)2p( 1.96)
      C    9      [core]2S( 0.37)2p( 1.27)3d( 0.01)4p( 0.01)
      O   10      [core]2S( 0.81)2p( 2.43)
      N   11      [core]2S( 0.68)2p( 2.21)3p( 0.01)
      C   12      [core]2S( 0.47)2p( 1.52)3p( 0.01)
      C   13      [core]2S( 0.51)2p( 1.68)
      C   14      [core]2S( 0.51)2p( 1.68)
      C   15      [core]2S( 0.51)2p( 1.67)
      C   16      [core]2S( 0.51)2p( 1.68)
      C   17      [core]2S( 0.51)2p( 1.68)3p( 0.01)
      H   18            1S( 0.40)
      H   19            1S( 0.42)
      H   20            1S( 0.41)
      H   21            1S( 0.40)
      H   22            1S( 0.41)
      H   23            1S( 0.39)
      H   24            1S( 0.40)
      H   25            1S( 0.39)
      H   26            1S( 0.39)
      H   27            1S( 0.27)2S( 0.02)
      H   28            1S( 0.30)
      H   29            1S( 0.41)
      H   30            1S( 0.40)
      H   31            1S( 0.40)
      H   32            1S( 0.40)
      H   33            1S( 0.41)
      H   34            1S( 0.40)
      H   35            1S( 0.41)
      H   36            1S( 0.40)
      H   37            1S( 0.40)
      H   38            1S( 0.40)
      H   39            1S( 0.40)


 NBO analysis skipped by request.
 1\1\GINC-NODE366\SP\UB3LYP\6-311++G(d,p)\C12H22N4O1(1-,2)\VSC10255\23-
 Feb-2021\0\\# B3LYP/6-311++G(d,p) empiricaldispersion=gd3bj scf=xqc po
 p=npa geom=check\\CID_131873537_JID_7235_Energie_anion\\-1,2\C,1.11036
 21127,-0.1572617762,-0.024126824\N,0.3119244453,-1.3654805296,-0.13609
 33952\C,-1.1194471749,-1.0767469853,-0.1514256563\C,-1.6597604426,-0.0
 412680762,-1.1624327058\C,-1.4474058152,-0.3484209627,-2.6564004021\C,
 -1.9505031299,-1.6799638203,-3.083428679\N,-1.3719384742,-2.5891609523
 ,-3.7917378303\N,-2.2749015198,-3.6638802476,-3.9148857234\C,-3.326994
 1431,-3.3049452545,-3.2437921268\O,-3.2207920872,-2.0678677724,-2.6859
 951245\N,-4.4612570523,-4.0257539705,-2.976312185\C,0.8250037024,-2.37
 19084607,-1.0883623059\C,2.3168103367,-2.6650820304,-0.8235402813\C,2.
 5491358128,-3.2796329578,0.5626196951\C,1.7401676173,-4.5733715484,0.7
 302193456\C,0.2543041028,-4.3503894029,0.4162697161\C,0.0691331361,-3.
 7100265073,-0.9650275602\H,0.6187612292,0.5301578075,0.6730229807\H,1.
 2560885527,0.3825117407,-0.9797585893\H,2.0997258403,-0.3776451805,0.3
 847605154\H,-1.6663174494,-2.0131473476,-0.2734248599\H,-1.3864247625,
 -0.7002861303,0.8468433459\H,-2.7354617087,0.0655167358,-0.9721211236\
 H,-1.2153397455,0.9405064054,-0.9621799214\H,-1.9456780369,0.432017478
 8,-3.2484403075\H,-0.3880023489,-0.3154356217,-2.9217451557\H,-5.30971
 3635,-3.4779281197,-2.9031873112\H,-4.5567955284,-4.8358019786,-3.5761
 947253\H,0.7383754746,-2.025892533,-2.1317731961\H,2.6446387438,-3.373
 8494269,-1.5953299315\H,2.9291678275,-1.7681469059,-0.9627785901\H,2.2
 450622919,-2.5612807817,1.3339836541\H,3.6182149476,-3.4785039896,0.71
 02017922\H,1.861193249,-4.9706386184,1.7460372592\H,2.1397941521,-5.33
 55734944,0.0447746776\H,-0.1820577071,-3.69394859,1.179231077\H,-0.288
 6936872,-5.3028372503,0.4612245557\H,-0.9924746945,-3.6013696415,-1.20
 11548083\H,0.4655055683,-4.3753533031,-1.7421792949\\Version=ES64L-G16
 RevA.03\State=2-A\HF=-765.0045738\S2=0.750079\S2-1=0.\S2A=0.75\RMSD=8.
 356e-09\Dipole=3.5559217,-0.0505742,1.5044566\Quadrupole=-16.9623261,7
 .9040437,9.0582824,-8.3442413,-16.5203932,-7.4931088\PG=C01 [X(C12H22N
 4O1)]\\@


 IF THE FACTS DO NOT CONFORM TO THE THEORY, THEY MUST BE DISPOSED OF.
 Job cpu time:       0 days  1 hours 25 minutes 46.2 seconds.
 Elapsed time:       0 days  0 hours 21 minutes 32.6 seconds.
 File lengths (MBytes):  RWF=    320 Int=      0 D2E=      0 Chk=     32 Scr=      8
 Normal termination of Gaussian 16 at Tue Feb 23 17:49:29 2021.
