 Entering Gaussian System, Link 0=g16
 Initial command:
 /apps/brussel/CO7/skylake/software/Gaussian/G16.A.03-intel-2017b/g16/l1.exe "/scratch/brussel/102/vsc10255/Gau-135789.inp" -scrdir="/scratch/brussel/102/vsc10255/"
 Entering Link 1 = /apps/brussel/CO7/skylake/software/Gaussian/G16.A.03-intel-2017b/g16/l1.exe.bin PID=    135791.
  
 Copyright (c) 1988,1990,1992,1993,1995,1998,2003,2009,2016,
            Gaussian, Inc.  All Rights Reserved.
  
 This is part of the Gaussian(R) 16 program.  It is based on
 the Gaussian(R) 09 system (copyright 2009, Gaussian, Inc.),
 the Gaussian(R) 03 system (copyright 2003, Gaussian, Inc.),
 the Gaussian(R) 98 system (copyright 1998, Gaussian, Inc.),
 the Gaussian(R) 94 system (copyright 1995, Gaussian, Inc.),
 the Gaussian 92(TM) system (copyright 1992, Gaussian, Inc.),
 the Gaussian 90(TM) system (copyright 1990, Gaussian, Inc.),
 the Gaussian 88(TM) system (copyright 1988, Gaussian, Inc.),
 the Gaussian 86(TM) system (copyright 1986, Carnegie Mellon
 University), and the Gaussian 82(TM) system (copyright 1983,
 Carnegie Mellon University). Gaussian is a federally registered
 trademark of Gaussian, Inc.
  
 This software contains proprietary and confidential information,
 including trade secrets, belonging to Gaussian, Inc.
  
 This software is provided under written license and may be
 used, copied, transmitted, or stored only in accord with that
 written license.
  
 The following legend is applicable only to US Government
 contracts under FAR:
  
                    RESTRICTED RIGHTS LEGEND
  
 Use, reproduction and disclosure by the US Government is
 subject to restrictions as set forth in subparagraphs (a)
 and (c) of the Commercial Computer Software - Restricted
 Rights clause in FAR 52.227-19.
  
 Gaussian, Inc.
 340 Quinnipiac St., Bldg. 40, Wallingford CT 06492
  
  
 ---------------------------------------------------------------
 Warning -- This program may not be used in any manner that
 competes with the business of Gaussian, Inc. or will provide
 assistance to any competitor of Gaussian, Inc.  The licensee
 of this program is prohibited from giving any competitor of
 Gaussian, Inc. access to this program.  By using this program,
 the user acknowledges that Gaussian, Inc. is engaged in the
 business of creating and licensing software in the field of
 computational chemistry and represents and warrants to the
 licensee that it is not a competitor of Gaussian, Inc. and that
 it will not use this program in any manner prohibited above.
 ---------------------------------------------------------------
  

 Cite this work as:
 Gaussian 16, Revision A.03,
 M. J. Frisch, G. W. Trucks, H. B. Schlegel, G. E. Scuseria, 
 M. A. Robb, J. R. Cheeseman, G. Scalmani, V. Barone, 
 G. A. Petersson, H. Nakatsuji, X. Li, M. Caricato, A. V. Marenich, 
 J. Bloino, B. G. Janesko, R. Gomperts, B. Mennucci, H. P. Hratchian, 
 J. V. Ortiz, A. F. Izmaylov, J. L. Sonnenberg, D. Williams-Young, 
 F. Ding, F. Lipparini, F. Egidi, J. Goings, B. Peng, A. Petrone, 
 T. Henderson, D. Ranasinghe, V. G. Zakrzewski, J. Gao, N. Rega, 
 G. Zheng, W. Liang, M. Hada, M. Ehara, K. Toyota, R. Fukuda, 
 J. Hasegawa, M. Ishida, T. Nakajima, Y. Honda, O. Kitao, H. Nakai, 
 T. Vreven, K. Throssell, J. A. Montgomery, Jr., J. E. Peralta, 
 F. Ogliaro, M. J. Bearpark, J. J. Heyd, E. N. Brothers, K. N. Kudin, 
 V. N. Staroverov, T. A. Keith, R. Kobayashi, J. Normand, 
 K. Raghavachari, A. P. Rendell, J. C. Burant, S. S. Iyengar, 
 J. Tomasi, M. Cossi, J. M. Millam, M. Klene, C. Adamo, R. Cammi, 
 J. W. Ochterski, R. L. Martin, K. Morokuma, O. Farkas, 
 J. B. Foresman, and D. J. Fox, Gaussian, Inc., Wallingford CT, 2016.
 
 ******************************************
 Gaussian 16:  ES64L-G16RevA.03 25-Dec-2016
                23-Feb-2021 
 ******************************************
 %chk=JID_3637.chk
 %mem=8GB
 %nprocshared=4
 Will use up to    4 processors via shared memory.
 ----------------------------------------------------------------------
 # opt=(cartesian,calcfc) freq B3LYP/6-31G(d) empiricaldispersion=gd3bj
  scf=xqc
 ----------------------------------------------------------------------
 1/10=4,18=10,26=3,38=1/1,3;
 2/12=2,17=6,18=5,29=2,40=1/2;
 3/5=1,6=6,7=1,11=2,25=1,30=1,71=2,74=-5,124=41,140=1/1,2,3;
 4//1;
 5/5=2,8=3,13=1,38=5/2,8;
 8/6=4,10=90,11=11/1;
 11/6=1,8=1,9=11,15=111,16=1/1,2,10;
 10/6=1,13=1/2;
 6/7=2,8=2,9=2,10=2,28=1/1;
 7/7=1,10=1,18=20,25=1/1,2,3,16;
 1/10=4,18=10,26=3/3(2);
 2/29=1/2;
 99/12=1/99;
 2/29=1/2;
 3/5=1,6=6,7=1,11=2,25=1,30=1,71=1,74=-5,124=41/1,2,3;
 4/5=5,16=3,69=1/1;
 5/5=2,8=3,13=1,38=5/2,8;
 7/7=1/1,2,3,16;
 1/18=10,26=3/3(-5);
 2/29=1/2;
 6/7=2,8=2,9=2,10=2,19=2,28=1/1;
 99/9=1,12=1/99;
 ------------------------------
 CID_43591392_JID_3637_neutraal
 ------------------------------
 Symbolic Z-matrix:
 Charge =  0 Multiplicity = 1
 C                     0.93516   0.06828  -0.03366 
 C                     0.46588   1.06482   1.01153 
 O                     0.74116   2.41793   0.66491 
 C                     2.12092   2.78385   0.56095 
 C                     2.81049   2.95579   1.92136 
 N                     3.34692   1.71533   2.46441 
 C                     4.59666   1.18024   2.31707 
 O                     4.8007    0.06662   2.80394 
 C                     5.69918   1.99512   1.58775 
 C                     7.10395   1.34919   1.7402 
 C                     7.31087   0.0918    0.88564 
 C                     8.21797   2.35779   1.43356 
 N                     5.31897   2.2192    0.17694 
 H                     0.61603   0.37494  -1.03475 
 H                     0.53239  -0.9267    0.17827 
 H                     2.02624  -0.01138  -0.04707 
 H                    -0.62367   0.98754   1.09618 
 H                     0.86687   0.82734   1.99925 
 H                     2.65226   2.10048  -0.10531 
 H                     2.11757   3.76256   0.06798 
 H                     3.62357   3.68084   1.83356 
 H                     2.09673   3.33418   2.66068 
 H                     2.71799   1.10945   2.97443 
 H                     5.7303    2.97034   2.08956 
 H                     7.22435   1.05077   2.7905 
 H                     7.33095   0.32638  -0.18384 
 H                     8.26744  -0.38177   1.1334 
 H                     6.52513  -0.64949   1.05565 
 H                     8.11621   3.25217   2.05713 
 H                     9.20052   1.9202    1.64153 
 H                     8.20863   2.67021   0.38452 
 H                     6.08517   2.68332  -0.30838 
 H                     5.21502   1.31039  -0.27755 
 

 GradGradGradGradGradGradGradGradGradGradGradGradGradGradGradGradGradGrad
 Berny optimization.
 Initialization pass.
 No Z-matrix variables, so optimization will use Cartesian coordinates.
 Trust Radius=3.00D-01 FncErr=1.00D-07 GrdErr=1.00D-06 EigMax=2.50D+02 EigMin=1.00D-04
 Number of steps in this run=    109 maximum allowed number of steps=    198.
 GradGradGradGradGradGradGradGradGradGradGradGradGradGradGradGradGradGrad

 ---------------------------------------------------------------------------------------------------
                            Z-MATRIX (ANGSTROMS AND DEGREES)
   CD    Cent   Atom    N1       Length/X        N2       Alpha/Y        N3        Beta/Z          J
 ---------------------------------------------------------------------------------------------------
      1      1  C        0   0.935160          0.068280         -0.033660
      2      2  C        0   0.465880          1.064820          1.011530
      3      3  O        0   0.741160          2.417930          0.664910
      4      4  C        0   2.120920          2.783850          0.560950
      5      5  C        0   2.810490          2.955790          1.921360
      6      6  N        0   3.346920          1.715330          2.464410
      7      7  C        0   4.596660          1.180240          2.317070
      8      8  O        0   4.800700          0.066620          2.803940
      9      9  C        0   5.699180          1.995120          1.587750
     10     10  C        0   7.103950          1.349190          1.740200
     11     11  C        0   7.310870          0.091800          0.885640
     12     12  C        0   8.217970          2.357790          1.433560
     13     13  N        0   5.318970          2.219200          0.176940
     14     14  H        0   0.616030          0.374940         -1.034750
     15     15  H        0   0.532390         -0.926700          0.178270
     16     16  H        0   2.026240         -0.011380         -0.047070
     17     17  H        0  -0.623670          0.987540          1.096180
     18     18  H        0   0.866870          0.827340          1.999250
     19     19  H        0   2.652260          2.100480         -0.105310
     20     20  H        0   2.117570          3.762560          0.067980
     21     21  H        0   3.623570          3.680840          1.833560
     22     22  H        0   2.096730          3.334180          2.660680
     23     23  H        0   2.717990          1.109450          2.974430
     24     24  H        0   5.730300          2.970340          2.089560
     25     25  H        0   7.224350          1.050770          2.790500
     26     26  H        0   7.330950          0.326380         -0.183840
     27     27  H        0   8.267440         -0.381770          1.133400
     28     28  H        0   6.525130         -0.649490          1.055650
     29     29  H        0   8.116210          3.252170          2.057130
     30     30  H        0   9.200520          1.920200          1.641530
     31     31  H        0   8.208630          2.670210          0.384520
     32     32  H        0   6.085170          2.683320         -0.308380
     33     33  H        0   5.215020          1.310390         -0.277550
 ---------------------------------------------------------------------------------------------------
                         Z-Matrix orientation:                         
 ---------------------------------------------------------------------
 Center     Atomic      Atomic             Coordinates (Angstroms)
 Number     Number       Type             X           Y           Z
 ---------------------------------------------------------------------
      1          6           0        0.935160    0.068280   -0.033660
      2          6           0        0.465880    1.064820    1.011530
      3          8           0        0.741160    2.417930    0.664910
      4          6           0        2.120920    2.783850    0.560950
      5          6           0        2.810490    2.955790    1.921360
      6          7           0        3.346920    1.715330    2.464410
      7          6           0        4.596660    1.180240    2.317070
      8          8           0        4.800700    0.066620    2.803940
      9          6           0        5.699180    1.995120    1.587750
     10          6           0        7.103950    1.349190    1.740200
     11          6           0        7.310870    0.091800    0.885640
     12          6           0        8.217970    2.357790    1.433560
     13          7           0        5.318970    2.219200    0.176940
     14          1           0        0.616030    0.374940   -1.034750
     15          1           0        0.532390   -0.926700    0.178270
     16          1           0        2.026240   -0.011380   -0.047070
     17          1           0       -0.623670    0.987540    1.096180
     18          1           0        0.866870    0.827340    1.999250
     19          1           0        2.652260    2.100480   -0.105310
     20          1           0        2.117570    3.762560    0.067980
     21          1           0        3.623570    3.680840    1.833560
     22          1           0        2.096730    3.334180    2.660680
     23          1           0        2.717990    1.109450    2.974430
     24          1           0        5.730300    2.970340    2.089560
     25          1           0        7.224350    1.050770    2.790500
     26          1           0        7.330950    0.326380   -0.183840
     27          1           0        8.267440   -0.381770    1.133400
     28          1           0        6.525130   -0.649490    1.055650
     29          1           0        8.116210    3.252170    2.057130
     30          1           0        9.200520    1.920200    1.641530
     31          1           0        8.208630    2.670210    0.384520
     32          1           0        6.085170    2.683320   -0.308380
     33          1           0        5.215020    1.310390   -0.277550
 ---------------------------------------------------------------------
                    Distance matrix (angstroms):
                    1          2          3          4          5
     1  C    0.000000
     2  C    1.518466   0.000000
     3  O    2.458961   1.423668   0.000000
     4  C    3.022236   2.428424   1.431238   0.000000
     5  C    3.959379   3.146546   2.479937   1.534857   0.000000
     6  N    3.843139   3.291567   3.243737   2.503592   1.456503
     7  C    4.490988   4.333717   4.373373   3.432901   2.549425
     8  O    4.795245   4.795811   5.155965   4.426688   3.617622
     9  C    5.388652   5.346486   5.060866   3.805307   3.062468
    10  C    6.545325   6.683996   6.540914   5.317844   4.587786
    11  C    6.441688   6.914948   6.972854   5.855607   5.434020
    12  C    7.773925   7.870501   7.516457   6.173896   5.462270
    13  N    4.887596   5.057827   4.608031   3.270140   3.142935
    14  H    1.094562   2.164657   2.660509   3.257883   4.496113
    15  H    1.094131   2.159837   3.386289   4.054387   4.827197
    16  H    1.094066   2.171074   2.838995   2.862161   3.646075
    17  H    2.133431   1.095562   2.023554   3.323549   4.043314
    18  H    2.171073   1.092145   2.079962   2.732998   2.883405
    19  H    2.661466   2.664616   2.084782   1.092346   2.205444
    20  H    3.880223   3.300934   2.014661   1.095858   2.136828
    21  H    4.874900   4.182141   3.356929   2.163812   1.092934
    22  H    4.390309   3.244898   2.580733   2.170787   1.095092
    23  H    3.648441   2.987803   3.309662   2.997498   2.127554
    24  H    5.993612   5.701515   5.217883   3.924162   2.924687
    25  H    6.963841   6.988694   6.958377   5.832620   4.885352
    26  H    6.402757   7.007381   6.965651   5.808467   5.637395
    27  H    7.438206   7.935478   8.043798   6.937475   6.445036
    28  H    5.740170   6.297247   6.558662   5.606212   5.248433
    29  H    8.128717   8.025293   7.551529   6.196885   5.315726
    30  H    8.634353   8.799006   8.530082   7.213479   6.479447
    31  H    7.736167   7.932250   7.476989   6.091326   5.619906
    32  H    5.782431   5.994842   5.438398   4.059694   3.971084
    33  H    4.463129   4.927105   4.704285   3.528119   3.650248
                    6          7          8          9         10
     6  N    0.000000
     7  C    1.367436   0.000000
     8  O    2.224186   1.232406   0.000000
     9  C    2.525855   1.552896   2.450611   0.000000
    10  C    3.843672   2.578338   2.842796   1.553655   0.000000
    11  C    4.565223   3.255861   3.159345   2.590971   1.534314
    12  C    5.020213   3.909105   4.336489   2.549433   1.533735
    13  N    3.061925   2.486227   3.435598   1.478227   2.527222
    14  H    4.636650   5.265797   5.687008   5.944822   7.123385
    15  H    4.486462   5.052915   5.108747   6.100769   7.127742
    16  H    3.321634   3.690010   3.978941   4.493236   5.552353
    17  H    4.262314   5.364658   5.760931   6.421471   7.762839
    18  H    2.674986   3.759904   4.086715   4.988413   6.264232
    19  H    2.689675   3.239669   4.149231   3.487302   4.877283
    20  H    3.383095   4.227608   5.323968   4.273345   5.786593
    21  H    2.082723   2.726479   3.922991   2.685187   4.190269
    22  H    2.054793   3.317706   4.243692   3.990226   5.464405
    23  H    1.011318   1.991616   2.335432   3.405112   4.562614
    24  H    2.719570   2.131046   3.131467   1.097195   2.153391
    25  H    3.947460   2.673135   2.615877   2.159756   1.098490
    26  H    4.981456   3.802627   3.923834   2.930170   2.190799
    27  H    5.511890   4.161199   3.874280   3.528739   2.172127
    28  H    4.204521   2.942463   2.557927   2.821221   2.190517
    29  H    5.027314   4.092395   4.658118   2.764512   2.178634
    30  H    5.914705   4.711626   4.913794   3.502554   2.175177
    31  H    5.373450   4.359024   4.924049   2.863712   2.191639
    32  H    4.015393   3.371632   4.264214   2.053757   2.648489
    33  H    3.342472   2.670461   3.348762   2.045143   2.764214
                   11         12         13         14         15
    11  C    0.000000
    12  C    2.501551   0.000000
    13  N    2.999292   3.162673   0.000000
    14  H    6.970577   8.234910   5.194914   0.000000
    15  H    6.890973   8.451732   5.727830   1.781202   0.000000
    16  H    5.367300   6.792846   3.983433   1.764496   1.766402
    17  H    7.987716   8.953547   6.138156   2.540275   2.417302
    18  H    6.580751   7.530004   5.007922   3.077782   2.550392
    19  H    5.169084   5.780264   2.684232   2.826231   3.706492
    20  H    6.411974   6.407267   3.555671   3.866084   4.951173
    21  H    5.232202   4.797809   2.784809   5.310506   5.790061
    22  H    6.391483   6.318919   4.218409   4.960421   5.173453
    23  H    5.147155   5.846573   3.977762   4.585986   4.091609
    24  H    3.497659   2.644628   2.095595   6.530940   6.771870
    25  H    2.134385   2.129993   3.438953   7.665453   7.450937
    26  H    1.095088   2.743978   2.785856   6.768793   6.922554
    27  H    1.095755   2.756398   4.046398   7.988589   7.812824
    28  H    1.093527   3.471636   3.233626   6.351117   6.062967
    29  H    3.465386   1.095039   3.525151   8.607606   8.860440
    30  H    2.735908   1.095509   4.159430   9.123802   9.240262
    31  H    2.775841   1.094613   2.932002   8.057926   8.479679
    32  H    3.105479   2.772934   1.018825   5.980612   6.640967
    33  H    2.688970   3.611461   1.021422   4.753854   5.209546
                   16         17         18         19         20
    16  H    0.000000
    17  H    3.053995   0.000000
    18  H    2.497001   1.750117   0.000000
    19  H    2.203462   3.662503   3.039354   0.000000
    20  H    3.776798   4.033897   3.729554   1.754546   0.000000
    21  H    4.440802   5.082976   3.971059   2.683318   2.322065
    22  H    4.304608   3.918540   2.869546   3.079177   2.627934
    23  H    3.296095   3.835281   2.111210   3.235933   3.980823
    24  H    5.213051   6.729876   5.315407   3.879232   4.214999
    25  H    6.016670   8.029081   6.410425   5.512859   6.391019
    26  H    5.317211   8.084031   6.841138   5.004372   6.249006
    27  H    6.362647   8.996012   7.548515   6.263083   7.492095
    28  H    4.675809   7.333952   5.923455   4.889712   6.314132
    29  H    7.222614   9.079509   7.644350   5.988095   6.340418
    30  H    7.619230   9.883419   8.412611   6.779650   7.485889
    31  H    6.752714   9.019277   7.739830   5.606940   6.196325
    32  H    4.878996   7.060948   6.000039   3.487952   4.128953
    33  H    3.459554   6.006802   4.931893   2.687312   3.965694
                   21         22         23         24         25
    21  H    0.000000
    22  H    1.770746   0.000000
    23  H    2.955284   2.331057   0.000000
    24  H    2.238003   3.696132   3.649646   0.000000
    25  H    4.560550   5.614562   4.510494   2.531452   0.000000
    26  H    5.391379   6.673471   5.645110   3.836789   3.063136
    27  H    6.209714   7.363323   6.034030   4.311376   2.426147
    28  H    5.270290   6.168993   4.611930   3.847583   2.527745
    29  H    4.518579   6.050218   5.879921   2.402716   2.485841
    30  H    5.851419   7.314495   6.667618   3.653211   2.445667
    31  H    4.913641   6.555691   6.268232   3.023137   3.062700
    32  H    3.412100   5.014638   4.959013   2.440989   3.683206
    33  H    3.550849   4.738423   4.104986   2.936692   3.676648
                   26         27         28         29         30
    26  H    0.000000
    27  H    1.764543   0.000000
    28  H    1.771441   1.764472   0.000000
    29  H    3.768133   3.752555   4.330987   0.000000
    30  H    3.060642   2.535330   3.755566   1.767087   0.000000
    31  H    2.566495   3.143066   3.782195   1.773371   1.768173
    32  H    2.668828   4.029368   3.627915   3.169282   3.753652
    33  H    2.335427   3.764499   2.708309   4.199779   4.465305
                   31         32         33
    31  H    0.000000
    32  H    2.233689   0.000000
    33  H    3.353975   1.625745   0.000000
 Stoichiometry    C9H20N2O2
 Framework group  C1[X(C9H20N2O2)]
 Deg. of freedom    93
 Full point group                 C1      NOp   1
 Largest Abelian subgroup         C1      NOp   1
 Largest concise Abelian subgroup C1      NOp   1
                         Standard orientation:                         
 ---------------------------------------------------------------------
 Center     Atomic      Atomic             Coordinates (Angstroms)
 Number     Number       Type             X           Y           Z
 ---------------------------------------------------------------------
      1          6           0        3.280105    1.494771   -1.068749
      2          6           0        3.659481    0.559490    0.065739
      3          8           0        3.448407   -0.814599   -0.241116
      4          6           0        2.094220   -1.219142   -0.466869
      5          6           0        1.272219   -1.345251    0.823168
      6          7           0        0.658127   -0.094793    1.248195
      7          6           0       -0.580354    0.401669    0.948911
      8          8           0       -0.855571    1.531140    1.358027
      9          6           0       -1.585627   -0.473166    0.151680
     10          6           0       -3.011284    0.143955    0.129163
     11          6           0       -3.154536    1.355049   -0.801884
     12          6           0       -4.067504   -0.905123   -0.239860
     13          7           0       -1.058179   -0.752556   -1.200687
     14          1           0        3.706401    1.150295   -2.016205
     15          1           0        3.638972    2.508181   -0.865432
     16          1           0        2.194791    1.546555   -1.196778
     17          1           0        4.732816    0.667679    0.256800
     18          1           0        3.154533    0.832228    0.994944
     19          1           0        1.620500   -0.580666   -1.215972
     20          1           0        2.167771   -2.219164   -0.908968
     21          1           0        0.487141   -2.093585    0.688436
     22          1           0        1.913748   -1.671258    1.648630
     23          1           0        1.219109    0.549429    1.789528
     24          1           0       -1.648550   -1.424673    0.694369
     25          1           0       -3.244827    0.487417    1.146106
     26          1           0       -3.060013    1.070959   -1.855248
     27          1           0       -4.140783    1.815596   -0.675814
     28          1           0       -2.405412    2.122713   -0.589028
     29          1           0       -4.012397   -1.766977    0.433400
     30          1           0       -5.074783   -0.482988   -0.154225
     31          1           0       -3.944262   -1.265271   -1.266156
     32          1           0       -1.761054   -1.257489   -1.738288
     33          1           0       -0.926352    0.136627   -1.685742
 ---------------------------------------------------------------------
 Rotational constants (GHZ):           1.4393511           0.3669824           0.3515441
 Standard basis: 6-31G(d) (6D, 7F)
 There are   235 symmetry adapted cartesian basis functions of A   symmetry.
 There are   235 symmetry adapted basis functions of A   symmetry.
   235 basis functions,   444 primitive gaussians,   235 cartesian basis functions
    52 alpha electrons       52 beta electrons
       nuclear repulsion energy       878.5585504840 Hartrees.
 NAtoms=   33 NActive=   33 NUniq=   33 SFac= 1.00D+00 NAtFMM=   60 NAOKFM=F Big=F
 Integral buffers will be    131072 words long.
 Raffenetti 2 integral format.
 Two-electron integral symmetry is turned on.
 Nuclear repulsion after empirical dispersion term =      878.5040375304 Hartrees.
 One-electron integrals computed using PRISM.
 NBasis=   235 RedAO= T EigKep=  2.56D-03  NBF=   235
 NBsUse=   235 1.00D-06 EigRej= -1.00D+00 NBFU=   235
 ExpMin= 1.61D-01 ExpMax= 5.48D+03 ExpMxC= 8.25D+02 IAcc=3 IRadAn=         5 AccDes= 0.00D+00
 Harris functional with IExCor=  402 and IRadAn=       5 diagonalized for initial guess.
 HarFok:  IExCor=  402 AccDes= 0.00D+00 IRadAn=         5 IDoV= 1 UseB2=F ITyADJ=14
 ICtDFT=  3500011 ScaDFX=  1.000000  1.000000  1.000000  1.000000
 FoFCou: FMM=F IPFlag=           0 FMFlag=      100000 FMFlg1=           0
         NFxFlg=           0 DoJE=T BraDBF=F KetDBF=T FulRan=T
         wScrn=  0.000000 ICntrl=       500 IOpCl=  0 I1Cent=   200000004 NGrid=           0
         NMat0=    1 NMatS0=      1 NMatT0=    0 NMatD0=    1 NMtDS0=    0 NMtDT0=    0
 Petite list used in FoFCou.
 Keep R1 ints in memory in canonical form, NReq=391064178.
 Requested convergence on RMS density matrix=1.00D-08 within  32 cycles.
 Requested convergence on MAX density matrix=1.00D-06.
 Requested convergence on             energy=1.00D-06.
 No special actions if energy rises.
 Integral accuracy reduced to 1.0D-05 until final iterations.
 Initial convergence to 1.0D-05 achieved.  Increase integral accuracy.
 SCF Done:  E(RB3LYP) =  -614.994514596     A.U. after   14 cycles
            NFock= 14  Conv=0.64D-08     -V/T= 2.0095
 QCSCF skips out because SCF is already converged.
 DoSCS=F DFT=T ScalE2(SS,OS)=  1.000000  1.000000
 Range of M.O.s used for correlation:     1   235
 NBasis=   235 NAE=    52 NBE=    52 NFC=     0 NFV=     0
 NROrb=    235 NOA=    52 NOB=    52 NVA=   183 NVB=   183
 Symmetrizing basis deriv contribution to polar:
 IMax=3 JMax=2 DiffMx= 0.00D+00
 G2DrvN: will do    34 centers at a time, making    1 passes.
 Calling FoFCou, ICntrl=  3107 FMM=F I1Cent=   0 AccDes= 0.00D+00.
 End of G2Drv F.D. properties file   721 does not exist.
 End of G2Drv F.D. properties file   722 does not exist.
 End of G2Drv F.D. properties file   788 does not exist.
          IDoAtm=111111111111111111111111111111111
          Differentiating once with respect to nuclear coordinates.
 Keep R1 ints in memory in canonical form, NReq=391077521.
          There are   102 degrees of freedom in the 1st order CPHF.  IDoFFX=6 NUNeed=     0.
     96 vectors produced by pass  0 Test12= 9.52D-15 1.00D-09 XBig12= 1.50D-01 9.36D-02.
 AX will form    96 AO Fock derivatives at one time.
     96 vectors produced by pass  1 Test12= 9.52D-15 1.00D-09 XBig12= 2.21D-02 2.45D-02.
     96 vectors produced by pass  2 Test12= 9.52D-15 1.00D-09 XBig12= 1.36D-04 1.44D-03.
     96 vectors produced by pass  3 Test12= 9.52D-15 1.00D-09 XBig12= 2.58D-07 6.32D-05.
     96 vectors produced by pass  4 Test12= 9.52D-15 1.00D-09 XBig12= 2.32D-10 1.32D-06.
     49 vectors produced by pass  5 Test12= 9.52D-15 1.00D-09 XBig12= 1.46D-13 4.01D-08.
 InvSVY:  IOpt=1 It=  1 EMax= 5.00D-16
 Solved reduced A of dimension   529 with   102 vectors.
 End of Minotr F.D. properties file   721 does not exist.
 End of Minotr F.D. properties file   722 does not exist.
 End of Minotr F.D. properties file   788 does not exist.

 **********************************************************************

            Population analysis using the SCF density.

 **********************************************************************

 Orbital symmetries:
       Occupied  (A) (A) (A) (A) (A) (A) (A) (A) (A) (A) (A) (A)
                 (A) (A) (A) (A) (A) (A) (A) (A) (A) (A) (A) (A)
                 (A) (A) (A) (A) (A) (A) (A) (A) (A) (A) (A) (A)
                 (A) (A) (A) (A) (A) (A) (A) (A) (A) (A) (A) (A)
                 (A) (A) (A) (A)
       Virtual   (A) (A) (A) (A) (A) (A) (A) (A) (A) (A) (A) (A)
                 (A) (A) (A) (A) (A) (A) (A) (A) (A) (A) (A) (A)
                 (A) (A) (A) (A) (A) (A) (A) (A) (A) (A) (A) (A)
                 (A) (A) (A) (A) (A) (A) (A) (A) (A) (A) (A) (A)
                 (A) (A) (A) (A) (A) (A) (A) (A) (A) (A) (A) (A)
                 (A) (A) (A) (A) (A) (A) (A) (A) (A) (A) (A) (A)
                 (A) (A) (A) (A) (A) (A) (A) (A) (A) (A) (A) (A)
                 (A) (A) (A) (A) (A) (A) (A) (A) (A) (A) (A) (A)
                 (A) (A) (A) (A) (A) (A) (A) (A) (A) (A) (A) (A)
                 (A) (A) (A) (A) (A) (A) (A) (A) (A) (A) (A) (A)
                 (A) (A) (A) (A) (A) (A) (A) (A) (A) (A) (A) (A)
                 (A) (A) (A) (A) (A) (A) (A) (A) (A) (A) (A) (A)
                 (A) (A) (A) (A) (A) (A) (A) (A) (A) (A) (A) (A)
                 (A) (A) (A) (A) (A) (A) (A) (A) (A) (A) (A) (A)
                 (A) (A) (A) (A) (A) (A) (A) (A) (A) (A) (A) (A)
                 (A) (A) (A)
 The electronic state is 1-A.
 Alpha  occ. eigenvalues --  -19.13973 -19.10484 -14.35415 -14.32893 -10.28254
 Alpha  occ. eigenvalues --  -10.22935 -10.22726 -10.22442 -10.22293 -10.18762
 Alpha  occ. eigenvalues --  -10.17810 -10.17539 -10.16789  -1.02569  -1.01881
 Alpha  occ. eigenvalues --   -0.91416  -0.89497  -0.78642  -0.76529  -0.72869
 Alpha  occ. eigenvalues --   -0.69574  -0.68202  -0.65236  -0.59711  -0.58426
 Alpha  occ. eigenvalues --   -0.54494  -0.51736  -0.50327  -0.48185  -0.47144
 Alpha  occ. eigenvalues --   -0.46499  -0.46024  -0.44415  -0.43839  -0.42189
 Alpha  occ. eigenvalues --   -0.42070  -0.40275  -0.39061  -0.38759  -0.38260
 Alpha  occ. eigenvalues --   -0.37564  -0.36722  -0.36605  -0.35124  -0.34873
 Alpha  occ. eigenvalues --   -0.33079  -0.32799  -0.30082  -0.26371  -0.25071
 Alpha  occ. eigenvalues --   -0.24173  -0.23061
 Alpha virt. eigenvalues --    0.01790   0.06550   0.07808   0.09295   0.09910
 Alpha virt. eigenvalues --    0.12001   0.12163   0.13394   0.13817   0.14540
 Alpha virt. eigenvalues --    0.15294   0.15871   0.17117   0.17699   0.17844
 Alpha virt. eigenvalues --    0.18071   0.18773   0.18976   0.19331   0.19869
 Alpha virt. eigenvalues --    0.20463   0.21628   0.22133   0.23110   0.24374
 Alpha virt. eigenvalues --    0.25196   0.26345   0.27315   0.28197   0.28875
 Alpha virt. eigenvalues --    0.29452   0.36217   0.39565   0.49385   0.50420
 Alpha virt. eigenvalues --    0.50714   0.51778   0.52433   0.52818   0.54929
 Alpha virt. eigenvalues --    0.55608   0.57136   0.57709   0.59826   0.60496
 Alpha virt. eigenvalues --    0.60718   0.62330   0.63929   0.65063   0.65932
 Alpha virt. eigenvalues --    0.68142   0.68267   0.70324   0.72195   0.72816
 Alpha virt. eigenvalues --    0.74601   0.76491   0.78411   0.79532   0.81527
 Alpha virt. eigenvalues --    0.83014   0.83459   0.84570   0.85511   0.86652
 Alpha virt. eigenvalues --    0.87252   0.88194   0.88709   0.89190   0.89867
 Alpha virt. eigenvalues --    0.90042   0.91037   0.91835   0.92144   0.93638
 Alpha virt. eigenvalues --    0.94518   0.94748   0.95568   0.96319   0.98329
 Alpha virt. eigenvalues --    0.98435   0.99274   0.99769   1.00645   1.02458
 Alpha virt. eigenvalues --    1.04653   1.05609   1.07546   1.09907   1.12660
 Alpha virt. eigenvalues --    1.15993   1.18295   1.20047   1.22369   1.28769
 Alpha virt. eigenvalues --    1.31609   1.32420   1.37840   1.39824   1.40552
 Alpha virt. eigenvalues --    1.44194   1.45895   1.50577   1.52678   1.56039
 Alpha virt. eigenvalues --    1.58861   1.62293   1.63808   1.64377   1.66659
 Alpha virt. eigenvalues --    1.67281   1.72000   1.72585   1.74687   1.75733
 Alpha virt. eigenvalues --    1.78627   1.79887   1.82522   1.84777   1.86088
 Alpha virt. eigenvalues --    1.88374   1.89986   1.90849   1.92241   1.95675
 Alpha virt. eigenvalues --    1.96706   1.97919   1.99299   2.00881   2.02463
 Alpha virt. eigenvalues --    2.04522   2.05740   2.08131   2.09284   2.10042
 Alpha virt. eigenvalues --    2.11936   2.13326   2.14031   2.16848   2.20983
 Alpha virt. eigenvalues --    2.22061   2.24370   2.25851   2.26668   2.27874
 Alpha virt. eigenvalues --    2.29906   2.33188   2.35178   2.39916   2.42752
 Alpha virt. eigenvalues --    2.44118   2.45214   2.47262   2.50971   2.51090
 Alpha virt. eigenvalues --    2.54708   2.56000   2.60247   2.61526   2.63935
 Alpha virt. eigenvalues --    2.66405   2.70248   2.72310   2.74175   2.79732
 Alpha virt. eigenvalues --    2.84744   2.92556   2.93673   3.02921   3.13872
 Alpha virt. eigenvalues --    3.82402   3.92138   3.99602   4.05197   4.18726
 Alpha virt. eigenvalues --    4.19575   4.29493   4.30590   4.38946   4.43493
 Alpha virt. eigenvalues --    4.53777   4.55437   4.65144
          Condensed to atoms (all electrons):
               1          2          3          4          5          6
     1  C    5.165781   0.359747  -0.052755  -0.006445  -0.001220  -0.001050
     2  C    0.359747   4.783699   0.271775  -0.048039  -0.004623  -0.000685
     3  O   -0.052755   0.271775   8.194633   0.253214  -0.048836   0.000858
     4  C   -0.006445  -0.048039   0.253214   4.899446   0.341502  -0.061197
     5  C   -0.001220  -0.004623  -0.048836   0.341502   5.009296   0.258715
     6  N   -0.001050  -0.000685   0.000858  -0.061197   0.258715   7.087598
     7  C    0.000027   0.000095  -0.000123  -0.000436  -0.025199   0.307582
     8  O   -0.000004   0.000008   0.000000   0.000003   0.003622  -0.103941
     9  C    0.000002  -0.000008   0.000013   0.000026   0.002594  -0.107843
    10  C   -0.000000   0.000000   0.000000  -0.000011   0.000080   0.004312
    11  C   -0.000000   0.000000  -0.000000   0.000000  -0.000003  -0.000073
    12  C   -0.000000  -0.000000  -0.000000  -0.000000  -0.000003  -0.000076
    13  N   -0.000042   0.000018   0.000080  -0.004008  -0.001456   0.002759
    14  H    0.370297  -0.031137   0.002827  -0.000409   0.000208  -0.000013
    15  H    0.352535  -0.022575   0.003042   0.000383   0.000021  -0.000013
    16  H    0.375853  -0.032716  -0.001656   0.001105  -0.000811   0.002211
    17  H   -0.044879   0.388236  -0.036590   0.005519  -0.000263   0.000178
    18  H   -0.057924   0.350225  -0.042022  -0.006989   0.006639   0.000183
    19  H    0.008005  -0.008285  -0.037230   0.353896  -0.047481  -0.003536
    20  H   -0.000163   0.006597  -0.036381   0.366573  -0.041143   0.004908
    21  H   -0.000009   0.000147   0.003047  -0.031268   0.354262  -0.032525
    22  H    0.000168   0.000136   0.002534  -0.044998   0.365871  -0.037971
    23  H   -0.000019  -0.000096   0.000228   0.001228  -0.029068   0.274917
    24  H   -0.000000  -0.000000  -0.000001   0.000045  -0.001030  -0.000851
    25  H    0.000000  -0.000000  -0.000000  -0.000000  -0.000016   0.000232
    26  H    0.000000  -0.000000  -0.000000   0.000001  -0.000001   0.000005
    27  H    0.000000   0.000000  -0.000000   0.000000   0.000000   0.000001
    28  H    0.000000  -0.000000  -0.000000   0.000002  -0.000007   0.000007
    29  H   -0.000000   0.000000  -0.000000  -0.000000  -0.000002  -0.000001
    30  H    0.000000   0.000000   0.000000   0.000000  -0.000000   0.000001
    31  H    0.000000  -0.000000  -0.000000   0.000000   0.000001  -0.000000
    32  H   -0.000000  -0.000000  -0.000001   0.000029   0.000070  -0.000187
    33  H    0.000001  -0.000005  -0.000009   0.000166  -0.000372   0.000478
               7          8          9         10         11         12
     1  C    0.000027  -0.000004   0.000002  -0.000000  -0.000000  -0.000000
     2  C    0.000095   0.000008  -0.000008   0.000000   0.000000  -0.000000
     3  O   -0.000123   0.000000   0.000013   0.000000  -0.000000  -0.000000
     4  C   -0.000436   0.000003   0.000026  -0.000011   0.000000  -0.000000
     5  C   -0.025199   0.003622   0.002594   0.000080  -0.000003  -0.000003
     6  N    0.307582  -0.103941  -0.107843   0.004312  -0.000073  -0.000076
     7  C    4.373134   0.570505   0.291759  -0.026608  -0.005501   0.004311
     8  O    0.570505   8.105101  -0.089069   0.005075  -0.007165   0.000465
     9  C    0.291759  -0.089069   5.165554   0.346718  -0.035485  -0.040058
    10  C   -0.026608   0.005075   0.346718   4.963160   0.373872   0.353834
    11  C   -0.005501  -0.007165  -0.035485   0.373872   5.143992  -0.060684
    12  C    0.004311   0.000465  -0.040058   0.353834  -0.060684   5.154412
    13  N   -0.034872   0.000080   0.311722  -0.065355  -0.009579  -0.005651
    14  H   -0.000001   0.000000  -0.000000  -0.000000   0.000000  -0.000000
    15  H   -0.000000   0.000000  -0.000000  -0.000000   0.000000   0.000000
    16  H    0.000757  -0.000020   0.000006  -0.000000  -0.000000   0.000000
    17  H   -0.000003  -0.000000   0.000000   0.000000  -0.000000   0.000000
    18  H    0.000199  -0.000113  -0.000027  -0.000000   0.000000   0.000000
    19  H    0.000791  -0.000090  -0.001061   0.000064  -0.000008  -0.000000
    20  H    0.000014   0.000000   0.000050   0.000001   0.000000  -0.000000
    21  H   -0.008648   0.000026   0.005241   0.000183   0.000002  -0.000003
    22  H    0.002759  -0.000110  -0.000471   0.000004  -0.000000   0.000000
    23  H   -0.008896   0.013049   0.008655  -0.000154   0.000004   0.000002
    24  H   -0.030768   0.002266   0.357421  -0.056491   0.005102  -0.004756
    25  H   -0.001190   0.006442  -0.040690   0.363804  -0.039682  -0.045499
    26  H    0.000129   0.000166  -0.008424  -0.036785   0.360313  -0.007323
    27  H    0.000039   0.000106   0.004561  -0.028748   0.370021  -0.003176
    28  H    0.002411   0.013143  -0.005046  -0.028596   0.365093   0.005371
    29  H    0.000042   0.000007  -0.004942  -0.032216   0.005698   0.367725
    30  H   -0.000077   0.000001   0.004235  -0.028517  -0.002815   0.374629
    31  H   -0.000020  -0.000007  -0.006604  -0.032369  -0.007152   0.359232
    32  H    0.004283  -0.000111  -0.040597  -0.002422  -0.001024   0.002936
    33  H   -0.005542   0.000879  -0.039692  -0.006682   0.005514   0.000103
              13         14         15         16         17         18
     1  C   -0.000042   0.370297   0.352535   0.375853  -0.044879  -0.057924
     2  C    0.000018  -0.031137  -0.022575  -0.032716   0.388236   0.350225
     3  O    0.000080   0.002827   0.003042  -0.001656  -0.036590  -0.042022
     4  C   -0.004008  -0.000409   0.000383   0.001105   0.005519  -0.006989
     5  C   -0.001456   0.000208   0.000021  -0.000811  -0.000263   0.006639
     6  N    0.002759  -0.000013  -0.000013   0.002211   0.000178   0.000183
     7  C   -0.034872  -0.000001  -0.000000   0.000757  -0.000003   0.000199
     8  O    0.000080   0.000000   0.000000  -0.000020  -0.000000  -0.000113
     9  C    0.311722  -0.000000  -0.000000   0.000006   0.000000  -0.000027
    10  C   -0.065355  -0.000000  -0.000000  -0.000000   0.000000  -0.000000
    11  C   -0.009579   0.000000   0.000000  -0.000000  -0.000000   0.000000
    12  C   -0.005651  -0.000000   0.000000   0.000000   0.000000   0.000000
    13  N    6.929704   0.000000   0.000000   0.000018  -0.000000  -0.000000
    14  H    0.000000   0.557304  -0.025177  -0.034299  -0.005042   0.006245
    15  H    0.000000  -0.025177   0.573582  -0.028514  -0.002335   0.002449
    16  H    0.000018  -0.034299  -0.028514   0.564246   0.005355  -0.007546
    17  H   -0.000000  -0.005042  -0.002335   0.005355   0.591098  -0.046989
    18  H   -0.000000   0.006245   0.002449  -0.007546  -0.046989   0.684380
    19  H    0.010162   0.000376  -0.000451   0.002351  -0.000144  -0.000991
    20  H    0.000455  -0.000147  -0.000001   0.000062  -0.000148  -0.000328
    21  H    0.000607  -0.000002  -0.000000   0.000018   0.000008  -0.000221
    22  H    0.000258   0.000002  -0.000002  -0.000000  -0.000116   0.000541
    23  H   -0.000263   0.000007  -0.000001  -0.000033  -0.000029   0.005677
    24  H   -0.045510  -0.000000   0.000000   0.000001   0.000000   0.000000
    25  H    0.005252  -0.000000   0.000000   0.000000   0.000000   0.000000
    26  H    0.006616   0.000000   0.000000  -0.000000  -0.000000   0.000000
    27  H    0.000411   0.000000   0.000000  -0.000000  -0.000000  -0.000000
    28  H   -0.000452   0.000000   0.000000   0.000002  -0.000000   0.000000
    29  H    0.000015  -0.000000   0.000000  -0.000000   0.000000   0.000000
    30  H    0.000067   0.000000  -0.000000  -0.000000  -0.000000  -0.000000
    31  H    0.003521  -0.000000   0.000000   0.000000  -0.000000  -0.000000
    32  H    0.312822  -0.000000  -0.000000   0.000001   0.000000  -0.000000
    33  H    0.309583  -0.000002  -0.000001   0.000336   0.000000  -0.000000
              19         20         21         22         23         24
     1  C    0.008005  -0.000163  -0.000009   0.000168  -0.000019  -0.000000
     2  C   -0.008285   0.006597   0.000147   0.000136  -0.000096  -0.000000
     3  O   -0.037230  -0.036381   0.003047   0.002534   0.000228  -0.000001
     4  C    0.353896   0.366573  -0.031268  -0.044998   0.001228   0.000045
     5  C   -0.047481  -0.041143   0.354262   0.365871  -0.029068  -0.001030
     6  N   -0.003536   0.004908  -0.032525  -0.037971   0.274917  -0.000851
     7  C    0.000791   0.000014  -0.008648   0.002759  -0.008896  -0.030768
     8  O   -0.000090   0.000000   0.000026  -0.000110   0.013049   0.002266
     9  C   -0.001061   0.000050   0.005241  -0.000471   0.008655   0.357421
    10  C    0.000064   0.000001   0.000183   0.000004  -0.000154  -0.056491
    11  C   -0.000008   0.000000   0.000002  -0.000000   0.000004   0.005102
    12  C   -0.000000  -0.000000  -0.000003   0.000000   0.000002  -0.004756
    13  N    0.010162   0.000455   0.000607   0.000258  -0.000263  -0.045510
    14  H    0.000376  -0.000147  -0.000002   0.000002   0.000007  -0.000000
    15  H   -0.000451  -0.000001  -0.000000  -0.000002  -0.000001   0.000000
    16  H    0.002351   0.000062   0.000018  -0.000000  -0.000033   0.000001
    17  H   -0.000144  -0.000148   0.000008  -0.000116  -0.000029   0.000000
    18  H   -0.000991  -0.000328  -0.000221   0.000541   0.005677   0.000000
    19  H    0.599190  -0.034527   0.002520   0.005398  -0.000036  -0.000049
    20  H   -0.034527   0.593006  -0.000782   0.000588  -0.000113  -0.000015
    21  H    0.002520  -0.000782   0.561302  -0.025636   0.003959   0.003436
    22  H    0.005398   0.000588  -0.025636   0.577590  -0.006215  -0.000045
    23  H   -0.000036  -0.000113   0.003959  -0.006215   0.403239  -0.000314
    24  H   -0.000049  -0.000015   0.003436  -0.000045  -0.000314   0.614965
    25  H   -0.000001  -0.000000  -0.000004   0.000000  -0.000014   0.001204
    26  H   -0.000004  -0.000000  -0.000000  -0.000000  -0.000000   0.000070
    27  H   -0.000000  -0.000000  -0.000000  -0.000000  -0.000000  -0.000109
    28  H   -0.000001  -0.000000  -0.000001   0.000000  -0.000001   0.000077
    29  H   -0.000000   0.000000  -0.000002   0.000000   0.000000   0.006188
    30  H    0.000000   0.000000  -0.000000   0.000000  -0.000000   0.000019
    31  H   -0.000000  -0.000000  -0.000002  -0.000000   0.000000   0.000315
    32  H    0.000028   0.000004   0.000212  -0.000001   0.000016  -0.003965
    33  H   -0.000077  -0.000010   0.000035  -0.000002  -0.000052   0.006833
              25         26         27         28         29         30
     1  C    0.000000   0.000000   0.000000   0.000000  -0.000000   0.000000
     2  C   -0.000000  -0.000000   0.000000  -0.000000   0.000000   0.000000
     3  O   -0.000000  -0.000000  -0.000000  -0.000000  -0.000000   0.000000
     4  C   -0.000000   0.000001   0.000000   0.000002  -0.000000   0.000000
     5  C   -0.000016  -0.000001   0.000000  -0.000007  -0.000002  -0.000000
     6  N    0.000232   0.000005   0.000001   0.000007  -0.000001   0.000001
     7  C   -0.001190   0.000129   0.000039   0.002411   0.000042  -0.000077
     8  O    0.006442   0.000166   0.000106   0.013143   0.000007   0.000001
     9  C   -0.040690  -0.008424   0.004561  -0.005046  -0.004942   0.004235
    10  C    0.363804  -0.036785  -0.028748  -0.028596  -0.032216  -0.028517
    11  C   -0.039682   0.360313   0.370021   0.365093   0.005698  -0.002815
    12  C   -0.045499  -0.007323  -0.003176   0.005371   0.367725   0.374629
    13  N    0.005252   0.006616   0.000411  -0.000452   0.000015   0.000067
    14  H   -0.000000   0.000000   0.000000   0.000000  -0.000000   0.000000
    15  H    0.000000   0.000000   0.000000   0.000000   0.000000  -0.000000
    16  H    0.000000  -0.000000  -0.000000   0.000002  -0.000000  -0.000000
    17  H    0.000000  -0.000000  -0.000000  -0.000000   0.000000  -0.000000
    18  H    0.000000   0.000000  -0.000000   0.000000   0.000000  -0.000000
    19  H   -0.000001  -0.000004  -0.000000  -0.000001  -0.000000   0.000000
    20  H   -0.000000  -0.000000  -0.000000  -0.000000   0.000000   0.000000
    21  H   -0.000004  -0.000000  -0.000000  -0.000001  -0.000002  -0.000000
    22  H    0.000000  -0.000000  -0.000000   0.000000   0.000000   0.000000
    23  H   -0.000014  -0.000000  -0.000000  -0.000001   0.000000  -0.000000
    24  H    0.001204   0.000070  -0.000109   0.000077   0.006188   0.000019
    25  H    0.605223   0.006131  -0.004302  -0.002461  -0.002673  -0.004208
    26  H    0.006131   0.614408  -0.031464  -0.031942   0.000029  -0.000234
    27  H   -0.004302  -0.031464   0.569798  -0.024873  -0.000032   0.003706
    28  H   -0.002461  -0.031942  -0.024873   0.532055  -0.000191   0.000002
    29  H   -0.002673   0.000029  -0.000032  -0.000191   0.581359  -0.028791
    30  H   -0.004208  -0.000234   0.003706   0.000002  -0.028791   0.561334
    31  H    0.006043   0.006033  -0.000124  -0.000049  -0.032541  -0.030709
    32  H    0.000119   0.001321  -0.000046   0.000017   0.000002  -0.000236
    33  H    0.000102   0.003097  -0.000099   0.001296   0.000004  -0.000002
              31         32         33
     1  C    0.000000  -0.000000   0.000001
     2  C   -0.000000  -0.000000  -0.000005
     3  O   -0.000000  -0.000001  -0.000009
     4  C    0.000000   0.000029   0.000166
     5  C    0.000001   0.000070  -0.000372
     6  N   -0.000000  -0.000187   0.000478
     7  C   -0.000020   0.004283  -0.005542
     8  O   -0.000007  -0.000111   0.000879
     9  C   -0.006604  -0.040597  -0.039692
    10  C   -0.032369  -0.002422  -0.006682
    11  C   -0.007152  -0.001024   0.005514
    12  C    0.359232   0.002936   0.000103
    13  N    0.003521   0.312822   0.309583
    14  H   -0.000000  -0.000000  -0.000002
    15  H    0.000000  -0.000000  -0.000001
    16  H    0.000000   0.000001   0.000336
    17  H   -0.000000   0.000000   0.000000
    18  H   -0.000000  -0.000000  -0.000000
    19  H   -0.000000   0.000028  -0.000077
    20  H   -0.000000   0.000004  -0.000010
    21  H   -0.000002   0.000212   0.000035
    22  H   -0.000000  -0.000001  -0.000002
    23  H    0.000000   0.000016  -0.000052
    24  H    0.000315  -0.003965   0.006833
    25  H    0.006043   0.000119   0.000102
    26  H    0.006033   0.001321   0.003097
    27  H   -0.000124  -0.000046  -0.000099
    28  H   -0.000049   0.000017   0.001296
    29  H   -0.032541   0.000002   0.000004
    30  H   -0.030709  -0.000236  -0.000002
    31  H    0.599670   0.006947   0.000169
    32  H    0.006947   0.442774  -0.032917
    33  H    0.000169  -0.032917   0.445847
 Mulliken charges:
               1
     1  C   -0.467909
     2  C   -0.012515
     3  O   -0.476647
     4  C   -0.019337
     5  C   -0.141345
     6  N   -0.594985
     7  C    0.589048
     8  O   -0.520312
     9  C   -0.078540
    10  C   -0.066150
    11  C   -0.460439
    12  C   -0.455790
    13  N   -0.726962
    14  H    0.158962
    15  H    0.147060
    16  H    0.153273
    17  H    0.146144
    18  H    0.106613
    19  H    0.151192
    20  H    0.141501
    21  H    0.164102
    22  H    0.159718
    23  H    0.334324
    24  H    0.145961
    25  H    0.146188
    26  H    0.117861
    27  H    0.144330
    28  H    0.174146
    29  H    0.140321
    30  H    0.151595
    31  H    0.127647
    32  H    0.309924
    33  H    0.311019
 Sum of Mulliken charges =  -0.00000
 Mulliken charges with hydrogens summed into heavy atoms:
               1
     1  C   -0.008613
     2  C    0.240242
     3  O   -0.476647
     4  C    0.273356
     5  C    0.182474
     6  N   -0.260661
     7  C    0.589048
     8  O   -0.520312
     9  C    0.067422
    10  C    0.080038
    11  C   -0.024102
    12  C   -0.036226
    13  N   -0.106019
 APT charges:
               1
     1  C   -1.046515
     2  C   -0.865084
     3  O   -0.364810
     4  C   -0.543475
     5  C   -0.749561
     6  N   -0.599195
     7  C   -0.157277
     8  O   -0.072705
     9  C   -0.299319
    10  C   -0.476990
    11  C   -1.204056
    12  C   -1.428708
    13  N   -1.221856
    14  H    0.556258
    15  H    0.619294
    16  H   -0.046550
    17  H    0.831893
    18  H    0.159703
    19  H    0.184114
    20  H    0.514971
    21  H    0.337947
    22  H    0.560613
    23  H    0.618198
    24  H    0.395886
    25  H    0.446611
    26  H    0.333863
    27  H    0.754022
    28  H    0.174170
    29  H    0.363121
    30  H    0.768358
    31  H    0.330834
    32  H    0.692380
    33  H    0.433862
 Sum of APT charges =  -0.00000
 APT charges with hydrogens summed into heavy atoms:
               1
     1  C    0.082487
     2  C    0.126513
     3  O   -0.364810
     4  C    0.155610
     5  C    0.148999
     6  N    0.019003
     7  C   -0.157277
     8  O   -0.072705
     9  C    0.096567
    10  C   -0.030379
    11  C    0.058000
    12  C    0.033605
    13  N   -0.095614
 Electronic spatial extent (au):  <R**2>=           3461.9719
 Charge=              0.0000 electrons
 Dipole moment (field-independent basis, Debye):
    X=             -0.5822    Y=             -1.3996    Z=             -1.0246  Tot=              1.8297
 Quadrupole moment (field-independent basis, Debye-Ang):
   XX=            -81.3840   YY=            -84.3772   ZZ=            -80.1311
   XY=              8.1546   XZ=              5.3195   YZ=             -4.2663
 Traceless Quadrupole moment (field-independent basis, Debye-Ang):
   XX=              0.5801   YY=             -2.4131   ZZ=              1.8330
   XY=              8.1546   XZ=              5.3195   YZ=             -4.2663
 Octapole moment (field-independent basis, Debye-Ang**2):
  XXX=            -13.8265  YYY=            -11.7201  ZZZ=             -2.0269  XYY=              8.5188
  XXY=             21.2993  XXZ=              6.4598  XZZ=              7.4712  YZZ=             -5.6111
  YYZ=             -3.9352  XYZ=              2.0618
 Hexadecapole moment (field-independent basis, Debye-Ang**3):
 XXXX=          -3460.2999 YYYY=           -653.1317 ZZZZ=           -462.4489 XXXY=             67.8904
 XXXZ=              8.1516 YYYX=             -5.0119 YYYZ=             -0.2452 ZZZX=             16.0101
 ZZZY=              9.2468 XXYY=           -689.1753 XXZZ=           -642.2792 YYZZ=           -196.7335
 XXYZ=              3.3740 YYXZ=              7.4098 ZZXY=              7.7290
 N-N= 8.785040375304D+02 E-N=-3.188070556708D+03  KE= 6.091908682454D+02
  Exact polarizability:   0.000   0.000   0.000   0.000   0.000   0.000
 Approx polarizability: 164.377  -8.486 165.675   2.199   9.231 143.596
 Calling FoFJK, ICntrl=    100147 FMM=F ISym2X=0 I1Cent= 0 IOpClX= 0 NMat=1 NMatS=1 NMatT=0.
 ***** Axes restored to original set *****
 -------------------------------------------------------------------
 Center     Atomic                   Forces (Hartrees/Bohr)
 Number     Number              X              Y              Z
 -------------------------------------------------------------------
      1        6           0.006834638   -0.002877775   -0.000833133
      2        6          -0.004260567    0.003196468   -0.005828220
      3        8           0.000754355    0.002047401    0.001363165
      4        6          -0.011616954    0.007076571   -0.001120008
      5        6           0.003728933   -0.008469415   -0.000902075
      6        7           0.007368848    0.009128408   -0.003999609
      7        6          -0.003742947   -0.012127019    0.003891123
      8        8           0.009118068    0.002864196   -0.003584260
      9        6           0.002009029   -0.006932549   -0.003281296
     10        6           0.003183773   -0.004423664    0.006303451
     11        6          -0.004310812   -0.003676706    0.000586200
     12        6          -0.002587348    0.002145251    0.003771007
     13        7          -0.006910482   -0.000600519    0.003695523
     14        1          -0.002359983    0.000447152    0.000664322
     15        1          -0.000232568   -0.000891584    0.000005177
     16        1           0.000940513   -0.001625850    0.000024826
     17        1          -0.000351285    0.004901109    0.000300341
     18        1           0.002719273   -0.003015019    0.003936297
     19        1           0.005266895   -0.000474916    0.004552313
     20        1          -0.002568129   -0.000225942   -0.000661430
     21        1          -0.000452256   -0.000398361   -0.000794217
     22        1          -0.001927112    0.003366965   -0.003726636
     23        1           0.001467091   -0.001484213   -0.000177492
     24        1          -0.000097210    0.002802339   -0.002058523
     25        1          -0.003316101    0.000268928   -0.000516966
     26        1           0.000811716    0.001088485   -0.001406841
     27        1           0.000166923    0.001127214   -0.000243950
     28        1          -0.000638944    0.000947147    0.001647411
     29        1           0.000776992    0.002016614   -0.000168790
     30        1          -0.000353687   -0.000254610   -0.001238107
     31        1           0.000599566    0.000859630   -0.002037167
     32        1          -0.000367803    0.001255433    0.000883013
     33        1           0.000347577    0.001938831    0.000954551
 -------------------------------------------------------------------
 Cartesian Forces:  Max     0.012127019 RMS     0.003612449

 GradGradGradGradGradGradGradGradGradGradGradGradGradGradGradGradGradGrad
 Berny optimization.
 Search for a local minimum.
 Step number   1 out of a maximum of  109
 All quantities printed in internal units (Hartrees-Bohrs-Radians)
 Second derivative matrix not updated -- analytic derivatives used.
 ITU=  0
     Eigenvalues ---   -0.00068  -0.00003   0.00006   0.00022   0.00081
     Eigenvalues ---    0.00112   0.00154   0.00184   0.00236   0.00388
     Eigenvalues ---    0.00450   0.00511   0.00737   0.00841   0.00917
     Eigenvalues ---    0.01024   0.01287   0.01581   0.02147   0.02344
     Eigenvalues ---    0.02603   0.02909   0.03149   0.03410   0.04257
     Eigenvalues ---    0.04350   0.05257   0.05419   0.05614   0.05788
     Eigenvalues ---    0.05933   0.06100   0.06362   0.06871   0.06921
     Eigenvalues ---    0.07290   0.07622   0.07901   0.08628   0.09094
     Eigenvalues ---    0.09731   0.10179   0.10691   0.11148   0.11615
     Eigenvalues ---    0.11764   0.12288   0.12404   0.13316   0.14130
     Eigenvalues ---    0.14187   0.14960   0.16413   0.16683   0.17879
     Eigenvalues ---    0.18717   0.18801   0.20441   0.21026   0.23510
     Eigenvalues ---    0.25550   0.27992   0.28894   0.32482   0.38975
     Eigenvalues ---    0.40426   0.47233   0.50476   0.53219   0.57037
     Eigenvalues ---    0.62521   0.65828   0.68790   0.70871   0.72028
     Eigenvalues ---    0.74686   0.76878   0.77062   0.78438   0.79041
     Eigenvalues ---    0.80443   0.83194   0.85541   0.85793   0.86807
     Eigenvalues ---    0.87900   0.89347   0.89877   0.93695   0.97717
     Eigenvalues ---    1.04945   1.18112   1.50619
 RFO step:  Lambda=-6.45445610D-03 EMin=-6.82485347D-04
 Linear search not attempted -- first point.
 Maximum step size (   0.300) exceeded in Quadratic search.
    -- Step size scaled by   0.356
 B after Tr=     0.000176    0.000919   -0.004526
         Rot=    1.000000   -0.000392   -0.000031    0.000089 Ang=  -0.05 deg.
 Variable       Old X    -DE/DX   Delta X   Delta X   Delta X     New X
                                 (Linear)    (Quad)   (Total)
    X1        1.76720   0.00683   0.00000   0.05358   0.05377   1.82097
    Y1        0.12903  -0.00288   0.00000  -0.01084  -0.01024   0.11879
    Z1       -0.06361  -0.00083   0.00000   0.06083   0.05628  -0.00733
    X2        0.88039  -0.00426   0.00000  -0.01571  -0.01506   0.86533
    Y2        2.01222   0.00320   0.00000   0.03218   0.03145   2.04367
    Z2        1.91151  -0.00583   0.00000  -0.00486  -0.00784   1.90368
    X3        1.40059   0.00075   0.00000  -0.00425  -0.00318   1.39741
    Y3        4.56923   0.00205   0.00000   0.02359   0.02330   4.59252
    Z3        1.25650   0.00136   0.00000  -0.02148  -0.02249   1.23400
    X4        4.00796  -0.01162   0.00000  -0.01075  -0.00957   3.99839
    Y4        5.26071   0.00708   0.00000   0.02161   0.02100   5.28171
    Z4        1.06004  -0.00112   0.00000  -0.01246  -0.01309   1.04695
    X5        5.31106   0.00373   0.00000   0.00878   0.01017   5.32122
    Y5        5.58563  -0.00847   0.00000  -0.01596  -0.01882   5.56681
    Z5        3.63084  -0.00090   0.00000  -0.01657  -0.01706   3.61378
    X6        6.32476   0.00737   0.00000   0.00940   0.01044   6.33520
    Y6        3.24150   0.00913   0.00000  -0.02186  -0.02570   3.21581
    Z6        4.65706  -0.00400   0.00000  -0.03010  -0.03250   4.62456
    X7        8.68643  -0.00374   0.00000   0.00750   0.00833   8.69476
    Y7        2.23033  -0.01213   0.00000  -0.02966  -0.03370   2.19663
    Z7        4.37863   0.00389   0.00000  -0.01725  -0.02059   4.35803
    X8        9.07201   0.00912   0.00000   0.02851   0.02902   9.10103
    Y8        0.12589   0.00286   0.00000  -0.02647  -0.03130   0.09460
    Z8        5.29868  -0.00358   0.00000  -0.02580  -0.03081   5.26787
    X9       10.76989   0.00201   0.00000  -0.00427  -0.00324  10.76665
    Y9        3.77023  -0.00693   0.00000  -0.01723  -0.02057   3.74966
    Z9        3.00041  -0.00328   0.00000  -0.00538  -0.00764   2.99278
   X10       13.42452   0.00318   0.00000  -0.00492  -0.00409  13.42043
   Y10        2.54960  -0.00442   0.00000  -0.00979  -0.01383   2.53577
   Z10        3.28850   0.00630   0.00000   0.00478   0.00142   3.28992
   X11       13.81554  -0.00431   0.00000  -0.00907  -0.00876  13.80678
   Y11        0.17348  -0.00368   0.00000  -0.00161  -0.00445   0.16903
   Z11        1.67362   0.00059   0.00000  -0.00807  -0.01331   1.66031
   X12       15.52971  -0.00259   0.00000  -0.01482  -0.01369  15.51602
   Y12        4.45558   0.00215   0.00000   0.00648   0.00251   4.45809
   Z12        2.70904   0.00377   0.00000   0.02031   0.01832   2.72736
   X13       10.05140  -0.00691   0.00000  -0.02892  -0.02797  10.02342
   Y13        4.19368  -0.00060   0.00000   0.00257   0.00144   4.19512
   Z13        0.33437   0.00370   0.00000   0.00864   0.00678   0.34115
   X14        1.16413  -0.00236   0.00000   0.09520   0.09538   1.25951
   Y14        0.70853   0.00045   0.00000  -0.05095  -0.04875   0.65978
   Z14       -1.95539   0.00066   0.00000   0.03431   0.03023  -1.92517
   X15        1.00607  -0.00023   0.00000   0.03701   0.03690   1.04298
   Y15       -1.75121  -0.00089   0.00000  -0.00128  -0.00087  -1.75208
   Z15        0.33688   0.00001   0.00000   0.07946   0.07350   0.41038
   X16        3.82904   0.00094   0.00000   0.05393   0.05410   3.88314
   Y16       -0.02151  -0.00163   0.00000  -0.01588  -0.01567  -0.03718
   Z16       -0.08895   0.00002   0.00000   0.12398   0.11918   0.03023
   X17       -1.17857  -0.00035   0.00000  -0.02120  -0.02056  -1.19912
   Y17        1.86618   0.00490   0.00000   0.05129   0.05085   1.91703
   Z17        2.07148   0.00030   0.00000  -0.06557  -0.06852   2.00296
   X18        1.63815   0.00272   0.00000  -0.07231  -0.07161   1.56653
   Y18        1.56345  -0.00302   0.00000   0.05563   0.05329   1.61674
   Z18        3.77803   0.00394   0.00000   0.03144   0.02808   3.80612
   X19        5.01205   0.00527   0.00000   0.01306   0.01393   5.02598
   Y19        3.96933  -0.00047   0.00000   0.02719   0.02737   3.99670
   Z19       -0.19901   0.00455   0.00000  -0.00088  -0.00259  -0.20160
   X20        4.00163  -0.00257   0.00000  -0.01268  -0.01123   3.99040
   Y20        7.11021  -0.00023   0.00000   0.02688   0.02698   7.13719
   Z20        0.12846  -0.00066   0.00000   0.00001   0.00083   0.12929
   X21        6.84755  -0.00045   0.00000   0.01095   0.01257   6.86012
   Y21        6.95578  -0.00040   0.00000  -0.02031  -0.02331   6.93247
   Z21        3.46493  -0.00079   0.00000  -0.01971  -0.01923   3.44569
   X22        3.96225  -0.00193   0.00000   0.01266   0.01426   3.97650
   Y22        6.30069   0.00337   0.00000  -0.00193  -0.00564   6.29504
   Z22        5.02796  -0.00373   0.00000  -0.01842  -0.01825   5.00970
   X23        5.13626   0.00147   0.00000   0.00483   0.00572   5.14198
   Y23        2.09656  -0.00148   0.00000  -0.02956  -0.03392   2.06263
   Z23        5.62086  -0.00018   0.00000  -0.04312  -0.04634   5.57452
   X24       10.82870  -0.00010   0.00000  -0.01203  -0.01062  10.81808
   Y24        5.61313   0.00280   0.00000  -0.01348  -0.01757   5.59556
   Z24        3.94870  -0.00206   0.00000  -0.00734  -0.00815   3.94055
   X25       13.65204  -0.00332   0.00000  -0.03149  -0.03064  13.62141
   Y25        1.98567   0.00027   0.00000  -0.01760  -0.02323   1.96243
   Z25        5.27328  -0.00052   0.00000   0.00357  -0.00025   5.27303
   X26       13.85349   0.00081   0.00000  -0.01133  -0.01107  13.84242
   Y26        0.61677   0.00109   0.00000   0.01443   0.01317   0.62994
   Z26       -0.34741  -0.00141   0.00000  -0.00646  -0.01135  -0.35875
   X27       15.62320   0.00017   0.00000  -0.00488  -0.00471  15.61849
   Y27       -0.72144   0.00113   0.00000   0.00105  -0.00246  -0.72390
   Z27        2.14182  -0.00024   0.00000  -0.01988  -0.02593   2.11588
   X28       12.33071  -0.00064   0.00000  -0.01034  -0.01026  12.32045
   Y28       -1.22736   0.00095   0.00000   0.00219  -0.00064  -1.22800
   Z28        1.99489   0.00165   0.00000  -0.00355  -0.00979   1.98510
   X29       15.33741   0.00078   0.00000  -0.01244  -0.01093  15.32648
   Y29        6.14571   0.00202   0.00000   0.00098  -0.00390   6.14181
   Z29        3.88741  -0.00017   0.00000   0.03029   0.02964   3.91705
   X30       17.38646  -0.00035   0.00000  -0.00954  -0.00853  17.37794
   Y30        3.62865  -0.00025   0.00000   0.00865   0.00405   3.63271
   Z30        3.10204  -0.00124   0.00000   0.00021  -0.00253   3.09951
   X31       15.51206   0.00060   0.00000  -0.02061  -0.01949  15.49257
   Y31        5.04597   0.00086   0.00000   0.02194   0.01952   5.06549
   Z31        0.72664  -0.00204   0.00000   0.02211   0.02060   0.74724
   X32       11.49930  -0.00037   0.00000  -0.05156  -0.05051  11.44879
   Y32        5.07074   0.00126   0.00000   0.04725   0.04658   5.11732
   Z32       -0.58275   0.00088   0.00000   0.01416   0.01294  -0.56982
   X33        9.85496   0.00035   0.00000   0.00051   0.00110   9.85606
   Y33        2.47628   0.00194   0.00000   0.01347   0.01306   2.48934
   Z33       -0.52449   0.00095   0.00000  -0.01633  -0.01951  -0.54400
         Item               Value     Threshold  Converged?
 Maximum Force            0.012127     0.000450     NO 
 RMS     Force            0.003612     0.000300     NO 
 Maximum Displacement     0.119184     0.001800     NO 
 RMS     Displacement     0.030035     0.001200     NO 
 Predicted change in Energy=-2.017327D-03
 GradGradGradGradGradGradGradGradGradGradGradGradGradGradGradGradGradGrad

                          Input orientation:                          
 ---------------------------------------------------------------------
 Center     Atomic      Atomic             Coordinates (Angstroms)
 Number     Number       Type             X           Y           Z
 ---------------------------------------------------------------------
      1          6           0        0.963616    0.062861   -0.003878
      2          6           0        0.457913    1.081465    1.007382
      3          8           0        0.739478    2.430258    0.653007
      4          6           0        2.115855    2.794963    0.554022
      5          6           0        2.815869    2.945831    1.912331
      6          7           0        3.352443    1.701733    2.447212
      7          6           0        4.601069    1.162406    2.306172
      8          8           0        4.816059    0.050058    2.787638
      9          6           0        5.697466    1.984235    1.583710
     10          6           0        7.101787    1.341871    1.740951
     11          6           0        7.306233    0.089446    0.878596
     12          6           0        8.210726    2.359118    1.443256
     13          7           0        5.304167    2.219962    0.180528
     14          1           0        0.666502    0.349141   -1.018755
     15          1           0        0.551919   -0.927162    0.217165
     16          1           0        2.054870   -0.019674    0.015999
     17          1           0       -0.634547    1.014448    1.059920
     18          1           0        0.828974    0.855541    2.014109
     19          1           0        2.659633    2.114964   -0.106680
     20          1           0        2.111629    3.776840    0.068418
     21          1           0        3.630222    3.668503    1.823383
     22          1           0        2.104275    3.331194    2.651020
     23          1           0        2.721017    1.091499    2.949907
     24          1           0        5.724681    2.961044    2.085247
     25          1           0        7.208138    1.038475    2.790365
     26          1           0        7.325094    0.333351   -0.189844
     27          1           0        8.264949   -0.383073    1.119676
     28          1           0        6.519701   -0.649829    1.050469
     29          1           0        8.110426    3.250107    2.072813
     30          1           0        9.196008    1.922345    1.640189
     31          1           0        8.198317    2.680541    0.395422
     32          1           0        6.058441    2.707968   -0.301535
     33          1           0        5.215601    1.317301   -0.287875
 ---------------------------------------------------------------------
                    Distance matrix (angstroms):
                    1          2          3          4          5
     1  C    0.000000
     2  C    1.521820   0.000000
     3  O    2.467044   1.422710   0.000000
     4  C    3.017166   2.427011   1.427313   0.000000
     5  C    3.926094   3.139228   2.482562   1.535507   0.000000
     6  N    3.794764   3.291831   3.252308   2.511666   1.456636
     7  C    4.447066   4.342713   4.387744   3.451313   2.553949
     8  O    4.757524   4.819393   5.180783   4.451364   3.626627
     9  C    5.349901   5.347903   5.064266   3.813853   3.055529
    10  C    6.508259   6.689320   6.545776   5.327269   4.579427
    11  C    6.403769   6.920996   6.975139   5.862183   5.421338
    12  C    7.738708   7.869467   7.513262   6.174800   5.446902
    13  N    4.850513   5.046390   4.593893   3.261205   3.117315
    14  H    1.095541   2.164495   2.670424   3.249046   4.466972
    15  H    1.094760   2.160524   3.390783   4.051369   4.795741
    16  H    1.094551   2.178444   2.852753   2.866246   3.601306
    17  H    2.142735   1.095774   2.014458   3.315250   4.045024
    18  H    2.172267   1.096462   2.083349   2.747595   2.885728
    19  H    2.664238   2.675224   2.088906   1.092987   2.188870
    20  H    3.888033   3.298708   2.009434   1.095405   2.141622
    21  H    4.842553   4.173988   3.355508   2.160476   1.092400
    22  H    4.362521   3.236254   2.581940   2.164504   1.095689
    23  H    3.587673   2.982474   3.315799   3.001379   2.126995
    24  H    5.952449   5.695039   5.213952   3.923755   2.913987
    25  H    6.910402   6.981863   6.953339   5.832480   4.868364
    26  H    6.369941   7.010792   6.962597   5.809392   5.619368
    27  H    7.400723   7.944011   8.047691   6.944871   6.434468
    28  H    5.699970   6.304325   6.561699   5.613101   5.233540
    29  H    8.096176   8.024906   7.551084   6.200706   5.305720
    30  H    8.598425   8.801241   8.529092   7.215940   6.467438
    31  H    7.704063   7.927509   7.467481   6.085605   5.598404
    32  H    5.748254   5.977014   5.411066   4.035285   3.933452
    33  H    4.442257   4.936487   4.707399   3.535633   3.640292
                    6          7          8          9         10
     6  N    0.000000
     7  C    1.367418   0.000000
     8  O    2.232955   1.230995   0.000000
     9  C    2.514871   1.549013   2.442818   0.000000
    10  C    3.832217   2.570073   2.826463   1.552248   0.000000
    11  C    4.548899   3.241470   3.137987   2.583707   1.534283
    12  C    5.004298   3.899534   4.320057   2.544945   1.534001
    13  N    3.035728   2.476113   3.426917   1.476201   2.537204
    14  H    4.588759   5.215109   5.638874   5.895502   7.072085
    15  H    4.441524   5.012571   5.073971   6.067976   7.097268
    16  H    3.249266   3.622890   3.912928   4.443182   5.504601
    17  H    4.277035   5.383931   5.798635   6.427226   7.773151
    18  H    2.696575   3.795810   4.140531   5.016115   6.297565
    19  H    2.678266   3.240123   4.158255   3.478928   4.872797
    20  H    3.391806   4.247367   5.347617   4.285764   5.798976
    21  H    2.081949   2.730596   3.927995   2.677257   4.179926
    22  H    2.062670   3.325138   4.258907   3.983023   5.455342
    23  H    1.011824   1.988472   2.345236   3.394513   4.551418
    24  H    2.710055   2.132232   3.129343   1.098379   2.153295
    25  H    3.927346   2.654545   2.588246   2.152349   1.097556
    26  H    4.960694   3.786521   3.903961   2.918918   2.189737
    27  H    5.499226   4.149735   3.855457   3.522988   2.171259
    28  H    4.184765   2.922693   2.531797   2.810463   2.186883
    29  H    5.017573   4.090053   4.648026   2.768398   2.183769
    30  H    5.903152   4.704732   4.899597   3.499545   2.175514
    31  H    5.352607   4.346940   4.907322   2.855017   2.192000
    32  H    3.986294   3.363455   4.260398   2.051400   2.669558
    33  H    3.331643   2.670341   3.350271   2.044462   2.770278
                   11         12         13         14         15
    11  C    0.000000
    12  C    2.507660   0.000000
    13  N    3.005772   3.172055   0.000000
    14  H    6.910384   8.186380   5.142586   0.000000
    15  H    6.862343   8.423792   5.699965   1.780330   0.000000
    16  H    5.322856   6.752057   3.949807   1.770397   1.767163
    17  H    7.996531   8.955108   6.123310   2.540916   2.426477
    18  H    6.620513   7.554925   5.025040   3.079140   2.546331
    19  H    5.163757   5.768583   2.662156   2.814708   3.715086
    20  H    6.421618   6.410859   3.553694   3.875494   4.958070
    21  H    5.216832   4.779122   2.756690   5.280109   5.759864
    22  H    6.380501   6.300189   4.192551   4.942376   5.144615
    23  H    5.130171   5.832132   3.951653   4.530166   4.030864
    24  H    3.493335   2.637212   2.086621   6.483983   6.735381
    25  H    2.136619   2.136349   3.439806   7.601156   7.402050
    26  H    1.096088   2.748653   2.789377   6.710006   6.901482
    27  H    1.095687   2.761749   4.052657   7.927511   7.784690
    28  H    1.093023   3.473846   3.235741   6.288050   6.032059
    29  H    3.473134   1.095566   3.537941   8.566527   8.833122
    30  H    2.740582   1.095597   4.167207   9.071793   9.212218
    31  H    2.782633   1.096094   2.938437   8.010216   8.456637
    32  H    3.131510   2.792548   1.019540   5.928868   6.618535
    33  H    2.690544   3.612890   1.020805   4.708059   5.200251
                   16         17         18         19         20
    16  H    0.000000
    17  H    3.064661   0.000000
    18  H    2.502252   1.754315   0.000000
    19  H    2.222041   3.663838   3.071678   0.000000
    20  H    3.797299   4.019374   3.736965   1.758636   0.000000
    21  H    4.398979   5.080860   3.974434   2.660953   2.323309
    22  H    4.263108   3.924291   2.856730   3.064727   2.620780
    23  H    3.207222   3.851987   2.123964   3.223969   3.985648
    24  H    5.160812   6.729065   5.329743   3.861984   4.217496
    25  H    5.947516   8.031359   6.428824   5.499145   6.393907
    26  H    5.286044   8.085895   6.879656   4.994756   6.253362
    27  H    6.317851   9.008756   7.591305   6.258092   7.501558
    28  H    4.626223   7.345283   5.964824   4.887044   6.323837
    29  H    7.182736   9.082878   7.665307   5.979121   6.346701
    30  H    7.576627   9.889429   8.443054   6.768520   7.489863
    31  H    6.721388   9.013152   7.762602   5.590081   6.193268
    32  H    4.854836   7.036879   6.011740   3.455650   4.105688
    33  H    3.445295   6.011032   4.975425   2.683667   3.976294
                   21         22         23         24         25
    21  H    0.000000
    22  H    1.768410   0.000000
    23  H    2.955784   2.342208   0.000000
    24  H    2.226170   3.682995   3.642092   0.000000
    25  H    4.544622   5.596909   4.490269   2.528657   0.000000
    26  H    5.369209   6.656916   5.624087   3.826504   3.064723
    27  H    6.196062   7.354911   6.021570   4.309108   2.434923
    28  H    5.253045   6.156809   4.590217   3.839430   2.520228
    29  H    4.506606   6.034463   5.871508   2.403224   2.494058
    30  H    5.836147   7.300638   6.658166   3.650628   2.460845
    31  H    4.886986   6.530576   6.249101   3.008831   3.067994
    32  H    3.366623   4.974075   4.931860   2.423256   3.697142
    33  H    3.535391   4.730034   4.093552   2.931341   3.677432
                   26         27         28         29         30
    26  H    0.000000
    27  H    1.763926   0.000000
    28  H    1.775859   1.766873   0.000000
    29  H    3.774100   3.759302   4.334177   0.000000
    30  H    3.061739   2.540228   3.758519   1.768787   0.000000
    31  H    2.571839   3.148765   3.786581   1.773632   1.766266
    32  H    2.693639   4.055004   3.649037   3.184664   3.772509
    33  H    2.329749   3.764439   2.713197   4.205782   4.463984
                   31         32         33
    31  H    0.000000
    32  H    2.250682   0.000000
    33  H    3.349913   1.626199   0.000000
 Stoichiometry    C9H20N2O2
 Framework group  C1[X(C9H20N2O2)]
 Deg. of freedom    93
 Full point group                 C1      NOp   1
 Largest Abelian subgroup         C1      NOp   1
 Largest concise Abelian subgroup C1      NOp   1
                         Standard orientation:                         
 ---------------------------------------------------------------------
 Center     Atomic      Atomic             Coordinates (Angstroms)
 Number     Number       Type             X           Y           Z
 ---------------------------------------------------------------------
      1          6           0        3.244590    1.489405   -1.066990
      2          6           0        3.667077    0.553229    0.055959
      3          8           0        3.454678   -0.823294   -0.234168
      4          6           0        2.104564   -1.234457   -0.447145
      5          6           0        1.272316   -1.318765    0.840503
      6          7           0        0.654996   -0.059494    1.234129
      7          6           0       -0.584650    0.432227    0.931933
      8          8           0       -0.873640    1.566240    1.313832
      9          6           0       -1.581691   -0.466527    0.158892
     10          6           0       -3.009206    0.142448    0.130166
     11          6           0       -3.152822    1.330383   -0.830152
     12          6           0       -4.057864   -0.924387   -0.209449
     13          7           0       -1.040904   -0.779865   -1.178470
     14          1           0        3.650983    1.147658   -2.025250
     15          1           0        3.608395    2.503389   -0.872100
     16          1           0        2.155458    1.540479   -1.163042
     17          1           0        4.746509    0.656008    0.214026
     18          1           0        3.189381    0.832044    1.002689
     19          1           0        1.616008   -0.614708   -1.203350
     20          1           0        2.181374   -2.244872   -0.863165
     21          1           0        0.488341   -2.069605    0.718190
     22          1           0        1.912929   -1.634615    1.671399
     23          1           0        1.217133    0.600250    1.756169
     24          1           0       -1.637730   -1.409563    0.719231
     25          1           0       -3.229843    0.509168    1.140842
     26          1           0       -3.056119    1.018054   -1.876339
     27          1           0       -4.141903    1.788593   -0.719284
     28          1           0       -2.405419    2.102267   -0.629444
     29          1           0       -4.002238   -1.769814    0.485119
     30          1           0       -5.067999   -0.505455   -0.142701
     31          1           0       -3.930391   -1.311788   -1.226845
     32          1           0       -1.730151   -1.320027   -1.700607
     33          1           0       -0.925547    0.093161   -1.694766
 ---------------------------------------------------------------------
 Rotational constants (GHZ):           1.4458725           0.3686598           0.3519619
 Standard basis: 6-31G(d) (6D, 7F)
 There are   235 symmetry adapted cartesian basis functions of A   symmetry.
 There are   235 symmetry adapted basis functions of A   symmetry.
   235 basis functions,   444 primitive gaussians,   235 cartesian basis functions
    52 alpha electrons       52 beta electrons
       nuclear repulsion energy       879.4828785646 Hartrees.
 NAtoms=   33 NActive=   33 NUniq=   33 SFac= 1.00D+00 NAtFMM=   60 NAOKFM=F Big=F
 Integral buffers will be    131072 words long.
 Raffenetti 2 integral format.
 Two-electron integral symmetry is turned on.
 Nuclear repulsion after empirical dispersion term =      879.4282273718 Hartrees.
 One-electron integrals computed using PRISM.
 NBasis=   235 RedAO= T EigKep=  2.55D-03  NBF=   235
 NBsUse=   235 1.00D-06 EigRej= -1.00D+00 NBFU=   235
 Initial guess from the checkpoint file:  "JID_3637.chk"
 B after Tr=    -0.000000    0.000000    0.000000
         Rot=    0.999949    0.010004    0.000065   -0.001281 Ang=   1.16 deg.
 ExpMin= 1.61D-01 ExpMax= 5.48D+03 ExpMxC= 8.25D+02 IAcc=2 IRadAn=         4 AccDes= 0.00D+00
 Harris functional with IExCor=  402 and IRadAn=       4 diagonalized for initial guess.
 HarFok:  IExCor=  402 AccDes= 0.00D+00 IRadAn=         4 IDoV= 1 UseB2=F ITyADJ=14
 ICtDFT=  3500011 ScaDFX=  1.000000  1.000000  1.000000  1.000000
 FoFCou: FMM=F IPFlag=           0 FMFlag=      100000 FMFlg1=           0
         NFxFlg=           0 DoJE=T BraDBF=F KetDBF=T FulRan=T
         wScrn=  0.000000 ICntrl=       500 IOpCl=  0 I1Cent=   200000004 NGrid=           0
         NMat0=    1 NMatS0=      1 NMatT0=    0 NMatD0=    1 NMtDS0=    0 NMtDT0=    0
 Petite list used in FoFCou.
 Keep R1 ints in memory in canonical form, NReq=391064178.
 Requested convergence on RMS density matrix=1.00D-08 within  32 cycles.
 Requested convergence on MAX density matrix=1.00D-06.
 Requested convergence on             energy=1.00D-06.
 No special actions if energy rises.
 Integral accuracy reduced to 1.0D-05 until final iterations.
 Initial convergence to 1.0D-05 achieved.  Increase integral accuracy.
[...]
 Alpha virt. eigenvalues --    0.61355   0.62641   0.63720   0.64982   0.66218
 Alpha virt. eigenvalues --    0.68431   0.69130   0.70119   0.71975   0.72576
 Alpha virt. eigenvalues --    0.74241   0.77062   0.78028   0.79536   0.81872
 Alpha virt. eigenvalues --    0.82897   0.83250   0.84349   0.85194   0.86843
 Alpha virt. eigenvalues --    0.87653   0.88488   0.88913   0.89147   0.90164
 Alpha virt. eigenvalues --    0.90458   0.91656   0.91827   0.92356   0.94353
 Alpha virt. eigenvalues --    0.94978   0.95238   0.95672   0.96181   0.98539
 Alpha virt. eigenvalues --    0.99203   1.00170   1.01581   1.02534   1.03465
 Alpha virt. eigenvalues --    1.05222   1.06367   1.10046   1.11908   1.13962
 Alpha virt. eigenvalues --    1.16321   1.19878   1.20830   1.23331   1.28416
 Alpha virt. eigenvalues --    1.31783   1.33557   1.38576   1.40330   1.40766
 Alpha virt. eigenvalues --    1.44412   1.46575   1.49727   1.51269   1.53769
 Alpha virt. eigenvalues --    1.59650   1.62116   1.64201   1.64768   1.66575
 Alpha virt. eigenvalues --    1.68833   1.70682   1.72530   1.72946   1.75998
 Alpha virt. eigenvalues --    1.78071   1.79459   1.83652   1.85383   1.87419
 Alpha virt. eigenvalues --    1.89318   1.90076   1.92506   1.93511   1.95755
 Alpha virt. eigenvalues --    1.97125   1.97608   2.00229   2.00818   2.03609
 Alpha virt. eigenvalues --    2.04413   2.06434   2.09427   2.10045   2.10395
 Alpha virt. eigenvalues --    2.11636   2.13906   2.14899   2.17456   2.22879
 Alpha virt. eigenvalues --    2.23827   2.25525   2.26525   2.27287   2.27707
 Alpha virt. eigenvalues --    2.31170   2.31813   2.34968   2.40156   2.42540
 Alpha virt. eigenvalues --    2.43633   2.44750   2.47595   2.50310   2.51559
 Alpha virt. eigenvalues --    2.54497   2.56442   2.59208   2.63036   2.64006
 Alpha virt. eigenvalues --    2.66662   2.71445   2.73658   2.74764   2.82358
 Alpha virt. eigenvalues --    2.84925   2.93196   2.95191   3.04168   3.14577
 Alpha virt. eigenvalues --    3.84711   3.92228   3.99718   4.07049   4.18872
 Alpha virt. eigenvalues --    4.20435   4.29671   4.30352   4.41267   4.44365
 Alpha virt. eigenvalues --    4.53613   4.58240   4.65882
          Condensed to atoms (all electrons):
               1          2          3          4          5          6
     1  C    5.172873   0.353849  -0.047927  -0.005300  -0.001371  -0.002786
     2  C    0.353849   4.779253   0.274287  -0.048541  -0.004894   0.000131
     3  O   -0.047927   0.274287   8.183304   0.261930  -0.049253   0.000314
     4  C   -0.005300  -0.048541   0.261930   4.899664   0.339292  -0.054455
     5  C   -0.001371  -0.004894  -0.049253   0.339292   5.008398   0.264470
     6  N   -0.002786   0.000131   0.000314  -0.054455   0.264470   7.081695
     7  C    0.000046   0.000093  -0.000124   0.000153  -0.024145   0.302907
     8  O   -0.000012  -0.000003   0.000000  -0.000013   0.003073  -0.095552
     9  C   -0.000013  -0.000014   0.000019   0.000067   0.001301  -0.114464
    10  C   -0.000001   0.000000   0.000000  -0.000024   0.000134   0.004757
    11  C   -0.000001   0.000000  -0.000000   0.000000  -0.000002  -0.000104
    12  C   -0.000000  -0.000000  -0.000000  -0.000000  -0.000004  -0.000091
    13  N   -0.000391   0.000040   0.000101  -0.008639  -0.002278   0.003648
    14  H    0.367342  -0.030938   0.002508  -0.000626   0.000337   0.000007
    15  H    0.355303  -0.022732   0.002684   0.000428   0.000008   0.000017
    16  H    0.374558  -0.030889  -0.001496   0.000427  -0.001541   0.004504
    17  H   -0.039150   0.387631  -0.040206   0.005529  -0.000353   0.000216
    18  H   -0.060295   0.352181  -0.043967  -0.004750   0.005854  -0.000423
    19  H    0.009129  -0.009772  -0.034747   0.353264  -0.050930  -0.004329
    20  H   -0.000185   0.006784  -0.038630   0.367836  -0.042268   0.004619
    21  H   -0.000020   0.000095   0.003043  -0.030247   0.349783  -0.033134
    22  H    0.000151  -0.000056   0.002502  -0.047950   0.366601  -0.039070
    23  H   -0.000002  -0.000094   0.000341   0.000557  -0.028771   0.274045
    24  H   -0.000001  -0.000000  -0.000001   0.000069  -0.001254  -0.001812
    25  H    0.000000  -0.000000  -0.000000   0.000000  -0.000018   0.000264
    26  H    0.000000  -0.000000  -0.000000   0.000001  -0.000001   0.000004
    27  H    0.000000  -0.000000   0.000000   0.000000   0.000000   0.000001
    28  H    0.000001  -0.000000  -0.000000   0.000001  -0.000007   0.000026
    29  H    0.000000   0.000000  -0.000000  -0.000000  -0.000003  -0.000001
    30  H   -0.000000   0.000000   0.000000   0.000000   0.000000   0.000001
    31  H    0.000000  -0.000000  -0.000000   0.000000   0.000001  -0.000001
    32  H    0.000002  -0.000000  -0.000001   0.000081   0.000052  -0.000196
    33  H    0.000087  -0.000011  -0.000008   0.000246  -0.000201   0.000209
               7          8          9         10         11         12
     1  C    0.000046  -0.000012  -0.000013  -0.000001  -0.000001  -0.000000
     2  C    0.000093  -0.000003  -0.000014   0.000000   0.000000  -0.000000
     3  O   -0.000124   0.000000   0.000019   0.000000  -0.000000  -0.000000
     4  C    0.000153  -0.000013   0.000067  -0.000024   0.000000  -0.000000
     5  C   -0.024145   0.003073   0.001301   0.000134  -0.000002  -0.000004
     6  N    0.302907  -0.095552  -0.114464   0.004757  -0.000104  -0.000091
     7  C    4.367367   0.574831   0.293264  -0.032434  -0.005588   0.004657
     8  O    0.574831   8.098334  -0.095213   0.005133  -0.010054   0.000530
     9  C    0.293264  -0.095213   5.192477   0.346402  -0.036495  -0.041502
    10  C   -0.032434   0.005133   0.346402   4.953216   0.374846   0.353897
    11  C   -0.005588  -0.010054  -0.036495   0.374846   5.147070  -0.056727
    12  C    0.004657   0.000530  -0.041502   0.353897  -0.056727   5.151437
    13  N   -0.042187   0.000092   0.311838  -0.060230  -0.009819  -0.005260
    14  H    0.000002   0.000000  -0.000001  -0.000000   0.000000  -0.000000
    15  H    0.000004  -0.000001   0.000001  -0.000000   0.000000   0.000000
    16  H    0.001782  -0.000033  -0.000111   0.000013  -0.000003   0.000000
    17  H   -0.000005  -0.000000   0.000000   0.000000  -0.000000   0.000000
    18  H    0.000241  -0.000074  -0.000023  -0.000000   0.000000   0.000000
    19  H    0.000650  -0.000041  -0.001222   0.000060  -0.000003  -0.000000
    20  H   -0.000032   0.000000   0.000045   0.000001   0.000000  -0.000000
    21  H   -0.009148   0.000026   0.005975   0.000193   0.000002  -0.000004
    22  H    0.002498  -0.000076  -0.000585   0.000004  -0.000000   0.000000
    23  H   -0.009184   0.011428   0.009523  -0.000176   0.000006   0.000002
    24  H   -0.028145   0.002311   0.357594  -0.054791   0.005354  -0.004870
    25  H   -0.000716   0.006787  -0.042394   0.365520  -0.039211  -0.043658
    26  H    0.000167   0.000216  -0.009069  -0.037257   0.359001  -0.006185
    27  H    0.000065   0.000175   0.004724  -0.029661   0.369046  -0.003364
    28  H    0.002486   0.015952  -0.005383  -0.029171   0.365773   0.005158
    29  H    0.000028   0.000008  -0.004804  -0.030891   0.005323   0.368598
    30  H   -0.000082   0.000002   0.004429  -0.028839  -0.003049   0.373559
    31  H    0.000028  -0.000010  -0.007710  -0.032340  -0.006332   0.358566
    32  H    0.004700  -0.000118  -0.038629  -0.002051  -0.000676   0.002398
    33  H   -0.004553   0.000786  -0.040129  -0.007041   0.005649   0.000023
              13         14         15         16         17         18
     1  C   -0.000391   0.367342   0.355303   0.374558  -0.039150  -0.060295
     2  C    0.000040  -0.030938  -0.022732  -0.030889   0.387631   0.352181
     3  O    0.000101   0.002508   0.002684  -0.001496  -0.040206  -0.043967
     4  C   -0.008639  -0.000626   0.000428   0.000427   0.005529  -0.004750
     5  C   -0.002278   0.000337   0.000008  -0.001541  -0.000353   0.005854
     6  N    0.003648   0.000007   0.000017   0.004504   0.000216  -0.000423
     7  C   -0.042187   0.000002   0.000004   0.001782  -0.000005   0.000241
     8  O    0.000092   0.000000  -0.000001  -0.000033  -0.000000  -0.000074
     9  C    0.311838  -0.000001   0.000001  -0.000111   0.000000  -0.000023
    10  C   -0.060230  -0.000000  -0.000000   0.000013   0.000000  -0.000000
    11  C   -0.009819   0.000000   0.000000  -0.000003  -0.000000   0.000000
    12  C   -0.005260  -0.000000   0.000000   0.000000   0.000000   0.000000
    13  N    6.935407  -0.000004   0.000002   0.001143  -0.000000  -0.000002
    14  H   -0.000004   0.563347  -0.025894  -0.033063  -0.005291   0.006442
    15  H    0.000002  -0.025894   0.570661  -0.028299  -0.002313   0.001616
    16  H    0.001143  -0.033063  -0.028299   0.552860   0.005005  -0.007554
    17  H   -0.000000  -0.005291  -0.002313   0.005005   0.591815  -0.048221
    18  H   -0.000002   0.006442   0.001616  -0.007554  -0.048221   0.689460
    19  H    0.014103   0.000195  -0.000337   0.001277  -0.000045  -0.000956
    20  H    0.000291  -0.000132  -0.000002   0.000115  -0.000142  -0.000368
    21  H   -0.000507  -0.000005  -0.000001   0.000063   0.000009  -0.000208
    22  H    0.000340   0.000000  -0.000001   0.000017  -0.000036   0.000040
    23  H   -0.000324   0.000012  -0.000004  -0.000188  -0.000027   0.005699
    24  H   -0.048442  -0.000000   0.000000   0.000004   0.000000   0.000000
    25  H    0.005043  -0.000000   0.000000  -0.000001   0.000000   0.000000
    26  H    0.006356   0.000000   0.000000  -0.000007  -0.000000   0.000000
    27  H    0.000319  -0.000000   0.000000  -0.000000  -0.000000  -0.000000
    28  H   -0.000351  -0.000000  -0.000000   0.000013  -0.000000   0.000000
    29  H   -0.000019   0.000000   0.000000  -0.000000   0.000000   0.000000
    30  H    0.000057   0.000000  -0.000000   0.000000  -0.000000  -0.000000
    31  H    0.004643   0.000000  -0.000000  -0.000000  -0.000000  -0.000000
    32  H    0.311221  -0.000000  -0.000000  -0.000006   0.000000  -0.000000
    33  H    0.309898  -0.000000  -0.000003   0.000882   0.000000   0.000001
              19         20         21         22         23         24
     1  C    0.009129  -0.000185  -0.000020   0.000151  -0.000002  -0.000001
     2  C   -0.009772   0.006784   0.000095  -0.000056  -0.000094  -0.000000
     3  O   -0.034747  -0.038630   0.003043   0.002502   0.000341  -0.000001
     4  C    0.353264   0.367836  -0.030247  -0.047950   0.000557   0.000069
     5  C   -0.050930  -0.042268   0.349783   0.366601  -0.028771  -0.001254
     6  N   -0.004329   0.004619  -0.033134  -0.039070   0.274045  -0.001812
     7  C    0.000650  -0.000032  -0.009148   0.002498  -0.009184  -0.028145
     8  O   -0.000041   0.000000   0.000026  -0.000076   0.011428   0.002311
     9  C   -0.001222   0.000045   0.005975  -0.000585   0.009523   0.357594
    10  C    0.000060   0.000001   0.000193   0.000004  -0.000176  -0.054791
    11  C   -0.000003   0.000000   0.000002  -0.000000   0.000006   0.005354
    12  C   -0.000000  -0.000000  -0.000004   0.000000   0.000002  -0.004870
    13  N    0.014103   0.000291  -0.000507   0.000340  -0.000324  -0.048442
    14  H    0.000195  -0.000132  -0.000005   0.000000   0.000012  -0.000000
    15  H   -0.000337  -0.000002  -0.000001  -0.000001  -0.000004   0.000000
    16  H    0.001277   0.000115   0.000063   0.000017  -0.000188   0.000004
    17  H   -0.000045  -0.000142   0.000009  -0.000036  -0.000027   0.000000
    18  H   -0.000956  -0.000368  -0.000208   0.000040   0.005699   0.000000
    19  H    0.588676  -0.033465   0.001565   0.006197  -0.000195  -0.000053
    20  H   -0.033465   0.599472   0.000695  -0.000945  -0.000096  -0.000006
    21  H    0.001565   0.000695   0.571018  -0.026988   0.004042   0.004292
    22  H    0.006197  -0.000945  -0.026988   0.589269  -0.006045   0.000008
    23  H   -0.000195  -0.000096   0.004042  -0.006045   0.407593  -0.000326
    24  H   -0.000053  -0.000006   0.004292   0.000008  -0.000326   0.617558
    25  H   -0.000001  -0.000000  -0.000004   0.000001  -0.000016   0.000459
    26  H   -0.000004  -0.000000  -0.000000  -0.000000  -0.000000   0.000078
    27  H   -0.000000  -0.000000  -0.000000  -0.000000  -0.000000  -0.000127
    28  H   -0.000001  -0.000000  -0.000002  -0.000000  -0.000002   0.000069
    29  H   -0.000000   0.000000  -0.000003   0.000000   0.000000   0.006215
    30  H    0.000000   0.000000  -0.000000   0.000000  -0.000000   0.000023
    31  H   -0.000001  -0.000000  -0.000001  -0.000000   0.000000   0.000229
    32  H    0.000024   0.000008   0.000380  -0.000001   0.000022  -0.005781
    33  H   -0.000564  -0.000004   0.000053  -0.000003  -0.000044   0.007153
              25         26         27         28         29         30
     1  C    0.000000   0.000000   0.000000   0.000001   0.000000  -0.000000
     2  C   -0.000000  -0.000000  -0.000000  -0.000000   0.000000   0.000000
     3  O   -0.000000  -0.000000   0.000000  -0.000000  -0.000000   0.000000
     4  C    0.000000   0.000001   0.000000   0.000001  -0.000000   0.000000
     5  C   -0.000018  -0.000001   0.000000  -0.000007  -0.000003   0.000000
     6  N    0.000264   0.000004   0.000001   0.000026  -0.000001   0.000001
     7  C   -0.000716   0.000167   0.000065   0.002486   0.000028  -0.000082
     8  O    0.006787   0.000216   0.000175   0.015952   0.000008   0.000002
     9  C   -0.042394  -0.009069   0.004724  -0.005383  -0.004804   0.004429
    10  C    0.365520  -0.037257  -0.029661  -0.029171  -0.030891  -0.028839
    11  C   -0.039211   0.359001   0.369046   0.365773   0.005323  -0.003049
    12  C   -0.043658  -0.006185  -0.003364   0.005158   0.368598   0.373559
    13  N    0.005043   0.006356   0.000319  -0.000351  -0.000019   0.000057
    14  H   -0.000000   0.000000  -0.000000  -0.000000   0.000000   0.000000
    15  H    0.000000   0.000000   0.000000  -0.000000   0.000000  -0.000000
    16  H   -0.000001  -0.000007  -0.000000   0.000013  -0.000000   0.000000
    17  H    0.000000  -0.000000  -0.000000  -0.000000   0.000000  -0.000000
    18  H    0.000000   0.000000  -0.000000   0.000000   0.000000  -0.000000
    19  H   -0.000001  -0.000004  -0.000000  -0.000001  -0.000000   0.000000
    20  H   -0.000000  -0.000000  -0.000000  -0.000000   0.000000   0.000000
    21  H   -0.000004  -0.000000  -0.000000  -0.000002  -0.000003  -0.000000
    22  H    0.000001  -0.000000  -0.000000  -0.000000   0.000000   0.000000
    23  H   -0.000016  -0.000000  -0.000000  -0.000002   0.000000  -0.000000
    24  H    0.000459   0.000078  -0.000127   0.000069   0.006215   0.000023
    25  H    0.602041   0.006126  -0.003833  -0.003105  -0.002987  -0.003335
    26  H    0.006126   0.615398  -0.031891  -0.030345  -0.000010  -0.000222
    27  H   -0.003833  -0.031891   0.571851  -0.023691  -0.000034   0.003940
    28  H   -0.003105  -0.030345  -0.023691   0.521200  -0.000180  -0.000001
    29  H   -0.002987  -0.000010  -0.000034  -0.000180   0.580726  -0.028655
    30  H   -0.003335  -0.000222   0.003940  -0.000001  -0.028655   0.563516
    31  H    0.005849   0.005665  -0.000153  -0.000067  -0.033252  -0.031406
    32  H    0.000048   0.000767  -0.000031  -0.000000   0.000051  -0.000186
    33  H    0.000133   0.004726  -0.000164   0.000847   0.000010  -0.000002
              31         32         33
     1  C    0.000000   0.000002   0.000087
     2  C   -0.000000  -0.000000  -0.000011
     3  O   -0.000000  -0.000001  -0.000008
     4  C    0.000000   0.000081   0.000246
     5  C    0.000001   0.000052  -0.000201
     6  N   -0.000001  -0.000196   0.000209
     7  C    0.000028   0.004700  -0.004553
     8  O   -0.000010  -0.000118   0.000786
     9  C   -0.007710  -0.038629  -0.040129
    10  C   -0.032340  -0.002051  -0.007041
    11  C   -0.006332  -0.000676   0.005649
    12  C    0.358566   0.002398   0.000023
    13  N    0.004643   0.311221   0.309898
    14  H    0.000000  -0.000000  -0.000000
    15  H   -0.000000  -0.000000  -0.000003
    16  H   -0.000000  -0.000006   0.000882
    17  H   -0.000000   0.000000   0.000000
    18  H   -0.000000  -0.000000   0.000001
    19  H   -0.000001   0.000024  -0.000564
    20  H   -0.000000   0.000008  -0.000004
    21  H   -0.000001   0.000380   0.000053
    22  H   -0.000000  -0.000001  -0.000003
    23  H    0.000000   0.000022  -0.000044
    24  H    0.000229  -0.005781   0.007153
    25  H    0.005849   0.000048   0.000133
    26  H    0.005665   0.000767   0.004726
    27  H   -0.000153  -0.000031  -0.000164
    28  H   -0.000067  -0.000000   0.000847
    29  H   -0.033252   0.000051   0.000010
    30  H   -0.031406  -0.000186  -0.000002
    31  H    0.604278   0.006253   0.000254
    32  H    0.006253   0.445791  -0.032395
    33  H    0.000254  -0.032395   0.440816
 Mulliken charges:
               1
     1  C   -0.475885
     2  C   -0.006401
     3  O   -0.474672
     4  C   -0.029000
     5  C   -0.132008
     6  N   -0.595417
     7  C    0.600373
     8  O   -0.518485
     9  C   -0.089899
    10  C   -0.059266
    11  C   -0.464006
    12  C   -0.457159
    13  N   -0.726086
    14  H    0.155760
    15  H    0.148864
    16  H    0.160529
    17  H    0.145583
    18  H    0.105307
    19  H    0.161524
    20  H    0.136408
    21  H    0.159038
    22  H    0.154130
    23  H    0.332225
    24  H    0.144193
    25  H    0.147007
    26  H    0.116486
    27  H    0.142827
    28  H    0.180779
    29  H    0.139879
    30  H    0.150249
    31  H    0.125505
    32  H    0.308275
    33  H    0.313347
 Sum of Mulliken charges =  -0.00000
 Mulliken charges with hydrogens summed into heavy atoms:
               1
     1  C   -0.010732
     2  C    0.244489
     3  O   -0.474672
     4  C    0.268932
     5  C    0.181159
     6  N   -0.263192
     7  C    0.600373
     8  O   -0.518485
     9  C    0.054294
    10  C    0.087741
    11  C   -0.023914
    12  C   -0.041527
    13  N   -0.104464
 Electronic spatial extent (au):  <R**2>=           3316.9023
 Charge=              0.0000 electrons
 Dipole moment (field-independent basis, Debye):
    X=             -0.6140    Y=             -1.6243    Z=             -1.3000  Tot=              2.1692
 Quadrupole moment (field-independent basis, Debye-Ang):
   XX=            -83.5516   YY=            -82.6628   ZZ=            -80.4345
   XY=              7.6735   XZ=              4.9226   YZ=             -3.9128
 Traceless Quadrupole moment (field-independent basis, Debye-Ang):
   XX=             -1.3353   YY=             -0.4465   ZZ=              1.7818
   XY=              7.6735   XZ=              4.9226   YZ=             -3.9128
 Octapole moment (field-independent basis, Debye-Ang**2):
  XXX=            -16.9513  YYY=            -12.0372  ZZZ=             -2.5629  XYY=             11.0450
  XXY=             18.7542  XXZ=              4.5923  XZZ=              8.0482  YZZ=             -6.2718
  YYZ=             -4.8292  XYZ=              2.1597
 Hexadecapole moment (field-independent basis, Debye-Ang**3):
 XXXX=          -3288.1610 YYYY=           -666.8332 ZZZZ=           -462.7663 XXXY=             61.0974
 XXXZ=             -3.0132 YYYX=             -6.3090 YYYZ=              1.6848 ZZZX=             16.0730
 ZZZY=              8.0977 XXYY=           -647.8153 XXZZ=           -610.4362 YYZZ=           -200.1425
 XXYZ=              1.2246 YYXZ=              5.8438 ZZXY=              8.3785
 N-N= 8.869210673852D+02 E-N=-3.204956855228D+03  KE= 6.092213851082D+02


 ASKING DUMB QUESTIONS IS EASIER THAN CORECTING DUMB MISTAKES.
 Error termination request processed by link 9999.
 Error termination via Lnk1e in /apps/brussel/CO7/skylake/software/Gaussian/G16.A.03-intel-2017b/g16/l9999.exe.bin at Tue Feb 23 16:03:50 2021.
 Job cpu time:       0 days  4 hours 27 minutes 29.3 seconds.
 Elapsed time:       0 days  1 hours 13 minutes 44.0 seconds.
 File lengths (MBytes):  RWF=    432 Int=      0 D2E=      0 Chk=     12 Scr=      8
